 vasp.6.5.0 16Dec24 (build Mar 11 2025 12:42:07) complex                        
  
 executed on             LinuxIFC date 2025.06.01  15:35:21
 running  128 mpi-ranks, on    2 nodes
 distrk:  each k-point on   64 cores,    2 groups
 distr:  one band on NCORE=   8 cores,    8 groups


--------------------------------------------------------------------------------------------------------


 INCAR:
   ENCUT = 500.000000
   EDIFF = 1.00e-06
   EDIFFG = -2.0e-02
   ALGO = NORMAL
   PREC = ACCURATE
   SYSTEM = Zr2Cu prim
   IBRION = 2
   ISIF = 2
   NSIM = 1
   ISMEAR = 1
   ISPIN = 2
   MAGMOM = 96*0.6
   SIGMA = 0.2
   LWAVE = FALSE
   LREAL = AUTO
   KPAR = 2
   NELM = 200
   NSW = 60
   POTIM = 0.2
   ISYM = -1
   NCORE = 8

 POTCAR:    PAW_PBE Cu_pv 06Sep2000               
 POTCAR:    PAW_PBE Zr_sv 04Jan2005               
 POTCAR:    PAW_PBE Cu_pv 06Sep2000               
   SHA256 =  cb7b504e2ea725fe1f25c85a9ac77d4012ce94cd394135b722c4e25ec297f1cb Cu_pv/POTCAR          
   COPYR  = (c) Copyright 06Sep2000 Georg Kresse                                                    
   COPYR  = This file is part of the software VASP. Any use, copying, and all other rights are regul
   COPYR  = If you do not have a valid VASP license, you may not use, copy or distribute this file. 
   VRHFIN =Cu: d10 p1                                                                               
   LEXCH  = PE                                                                                      
   EATOM  =  4120.1201 eV,  302.8203 Ry                                                             
                                                                                                    
   TITEL  = PAW_PBE Cu_pv 06Sep2000                                                                 
   LULTRA =        F    use ultrasoft PP ?                                                          
   IUNSCR =        1    unscreen: 0-lin 1-nonlin 2-no                                               
   RPACOR =    1.500    partial core radius                                                         
   POMASS =   63.546; ZVAL   =   17.000    mass and valenz                                          
   RCORE  =    2.000    outmost cutoff radius                                                       
   RWIGS  =    2.000; RWIGS  =    1.058    wigner-seitz radius (au A)                               
   ENMAX  =  368.648; ENMIN  =  276.486 eV                                                          
   RCLOC  =    1.304    cutoff for local pot                                                        
   LCOR   =        T    correct aug charges                                                         
   LPAW   =        T    paw PP                                                                      
   EAUG   =  758.233                                                                                
   DEXC   =    0.000                                                                                
   RMAX   =    2.046    core radius for proj-oper                                                   
   RAUG   =    1.300    factor for augmentation sphere                                              
   RDEP   =    2.025    radius for radial grids                                                     
   RDEPT  =    1.558    core radius for aug-charge                                                  
                                                                                                    
   Atomic configuration                                                                             
    8 entries                                                                                       
     n  l   j            E        occ.                                                              
     1  0  0.50     -8850.2467   2.0000                                                             
     2  0  0.50     -1062.3498   2.0000                                                             
     2  1  1.50      -916.8226   6.0000                                                             
     3  0  0.50      -114.6929   2.0000                                                             
     3  1  1.50       -72.1325   6.0000                                                             
     3  2  2.50        -5.0394  10.0000                                                             
     4  0  0.50        -4.6097   1.0000                                                             
     4  3  2.50        -1.3606   0.0000                                                             
   Description                                                                                      
     l       E           TYP  RCUT    TYP  RCUT                                                     
     1    -72.1324777     23  1.700                                                                 
     1     -1.3605826     23  1.700                                                                 
     2     -5.0393776     23  2.000                                                                 
     2     -6.3999602     23  2.000                                                                 
     0     -4.6097062     23  1.800                                                                 
     0     14.1620818     23  1.800                                                                 
  local pseudopotential read in
  partial core-charges read in
  partial kinetic energy density read in
  atomic valenz-charges read in
  non local Contribution for L=           1  read in
    real space projection operators read in
  non local Contribution for L=           1  read in
    real space projection operators read in
  non local Contribution for L=           2  read in
    real space projection operators read in
  non local Contribution for L=           2  read in
    real space projection operators read in
  non local Contribution for L=           0  read in
    real space projection operators read in
  non local Contribution for L=           0  read in
    real space projection operators read in
    PAW grid and wavefunctions read in
 
   number of l-projection  operators is LMAX  =           6
   number of lm-projection operators is LMMAX =          18
 
 POTCAR:    PAW_PBE Zr_sv 04Jan2005               
   SHA256 =  25aed69cb10325f9d37c5c68912b61a17387d1f8e4f1d804860ffa10c8a4bf76 Zr_sv/POTCAR          
   COPYR  = (c) Copyright 04Jan2005 Georg Kresse                                                    
   COPYR  = This file is part of the software VASP. Any use, copying, and all other rights are regul
   COPYR  = If you do not have a valid VASP license, you may not use, copy or distribute this file. 
   VRHFIN =Zr: 4s4p5s4d                                                                             
   LEXCH  = PE                                                                                      
   EATOM  =  1284.2219 eV,   94.3876 Ry                                                             
                                                                                                    
   TITEL  = PAW_PBE Zr_sv 04Jan2005                                                                 
   LULTRA =        F    use ultrasoft PP ?                                                          
   IUNSCR =        1    unscreen: 0-lin 1-nonlin 2-no                                               
   RPACOR =    2.200    partial core radius                                                         
   POMASS =   91.224; ZVAL   =   12.000    mass and valenz                                          
   RCORE  =    2.500    outmost cutoff radius                                                       
   RWIGS  =    3.070; RWIGS  =    1.625    wigner-seitz radius (au A)                               
   ENMAX  =  229.898; ENMIN  =  172.424 eV                                                          
   ICORE  =        3    local potential                                                             
   LCOR   =        T    correct aug charges                                                         
   LPAW   =        T    paw PP                                                                      
   EAUG   =  461.257                                                                                
   DEXC   =    0.000                                                                                
   RMAX   =    2.561    core radius for proj-oper                                                   
   RAUG   =    1.300    factor for augmentation sphere                                              
   RDEP   =    2.597    radius for radial grids                                                     
   RDEPT  =    2.007    core radius for aug-charge                                                  
                                                                                                    
   Atomic configuration                                                                             
   11 entries                                                                                       
     n  l   j            E        occ.                                                              
     1  0  0.50    -17820.0161   2.0000                                                             
     2  0  0.50     -2467.0882   2.0000                                                             
     2  1  1.50     -2199.6095   6.0000                                                             
     3  0  0.50      -402.4863   2.0000                                                             
     3  1  1.50      -315.3675   6.0000                                                             
     3  2  2.50      -172.4472  10.0000                                                             
     4  0  0.50       -52.4146   2.0000                                                             
     5  0  0.50        -3.8421   1.0000                                                             
     4  1  1.50       -30.5054   6.0000                                                             
     4  2  2.50        -2.3341   3.0000                                                             
     4  3  2.50        -1.3606   0.0000                                                             
   Description                                                                                      
     l       E           TYP  RCUT    TYP  RCUT                                                     
     0    -52.4145962     23  2.200                                                                 
     0     -3.8421270     23  2.500                                                                 
     1    -30.5053914     23  2.200                                                                 
     1     20.4087390     23  2.200                                                                 
     2     -2.3340816     23  2.500                                                                 
     2     -0.6120942     23  2.500                                                                 
     3     -4.0817478     23  2.500                                                                 
  local pseudopotential read in
  partial core-charges read in
  partial kinetic energy density read in
  atomic valenz-charges read in
  non local Contribution for L=           0  read in
    real space projection operators read in
  non local Contribution for L=           0  read in
    real space projection operators read in
  non local Contribution for L=           1  read in
    real space projection operators read in
  non local Contribution for L=           1  read in
    real space projection operators read in
  non local Contribution for L=           2  read in
    real space projection operators read in
  non local Contribution for L=           2  read in
    real space projection operators read in
    PAW grid and wavefunctions read in
 
   number of l-projection  operators is LMAX  =           6
   number of lm-projection operators is LMMAX =          18
 
 Optimization of the real space projectors (new method)

 maximal supplied QI-value         = 18.90
 optimisation between [QCUT,QGAM] = [ 11.34, 22.87] = [ 36.00,146.41] Ry 
 Optimized for a Real-space Cutoff    1.39 Angstroem

   l    n(q)    QCUT    max X(q) W(low)/X(q) W(high)/X(q)  e(spline) 
   1      9    11.338     3.172    0.35E-04    0.38E-04    0.13E-06
   1      9    11.338     4.083    0.89E-04    0.74E-04    0.24E-06
   2      9    11.338    65.342    0.14E-03    0.23E-03    0.33E-06
   2      9    11.338    61.381    0.14E-03    0.23E-03    0.33E-06
   0     10    11.338    65.742    0.28E-04    0.32E-04    0.86E-07
   0     10    11.338    30.431    0.24E-04    0.29E-04    0.78E-07
 Optimization of the real space projectors (new method)

 maximal supplied QI-value         = 15.12
 optimisation between [QCUT,QGAM] = [ 11.34, 22.83] = [ 36.00,145.93] Ry 
 Optimized for a Real-space Cutoff    1.52 Angstroem

   l    n(q)    QCUT    max X(q) W(low)/X(q) W(high)/X(q)  e(spline) 
   0     10    11.338    12.107    0.25E-04    0.17E-04    0.51E-07
   0     10    11.338     9.948    0.49E-04    0.35E-04    0.12E-06
   1     10    11.338     3.563    0.20E-04    0.52E-05    0.48E-07
   1     10    11.338     4.524    0.21E-03    0.12E-03    0.44E-06
   2      9    11.338    87.261    0.14E-03    0.22E-04    0.23E-06
   2      9    11.338    70.950    0.14E-03    0.22E-04    0.23E-06
  PAW_PBE Cu_pv 06Sep2000               :
 energy of atom  1       EATOM=-4120.1201
 kinetic energy error for atom=    0.0655 (will be added to EATOM!!)
  PAW_PBE Zr_sv 04Jan2005               :
 energy of atom  2       EATOM=-1284.2219
 kinetic energy error for atom=    0.0049 (will be added to EATOM!!)
 
 
 POSCAR: Zirconium copper (2/1) - tetragonal part
  positions in direct lattice
  No initial velocities read in


 exchange-correlation table for PE
   RHO(1)=    0.500       N(1)  =     2000
   RHO(2)=  100.500       N(2)  =     4000
 


--------------------------------------------------------------------------------------------------------


 ion  position               nearest neighbor table
   1  0.000  0.000  0.000-  81 2.86  84 2.86  93 2.86  96 2.86  65 2.86  68 2.86  77 2.86  80 2.86

   2  0.000  0.250  0.000-  81 2.86  82 2.86  93 2.86  94 2.86  65 2.86  66 2.86  77 2.86  78 2.86

   3  0.000  0.500  0.000-  82 2.86  83 2.86  94 2.86  95 2.86  66 2.86  67 2.86  78 2.86  79 2.86

   4  0.000  0.750  0.000-  83 2.86  84 2.86  95 2.86  96 2.86  67 2.86  68 2.86  79 2.86  80 2.86

   5  0.250  0.000  0.000-  81 2.86  84 2.86  85 2.86  88 2.86  65 2.86  68 2.86  69 2.86  72 2.86

   6  0.250  0.250  0.000-  81 2.86  82 2.86  85 2.86  86 2.86  65 2.86  66 2.86  69 2.86  70 2.86

   7  0.250  0.500  0.000-  82 2.86  83 2.86  86 2.86  87 2.86  66 2.86  67 2.86  70 2.86  71 2.86

   8  0.250  0.750  0.000-  83 2.86  84 2.86  87 2.86  88 2.86  67 2.86  68 2.86  71 2.86  72 2.86

   9  0.500  0.000  0.000-  85 2.86  88 2.86  89 2.86  92 2.86  69 2.86  72 2.86  73 2.86  76 2.86

  10  0.500  0.250  0.000-  85 2.86  86 2.86  89 2.86  90 2.86  69 2.86  70 2.86  73 2.86  74 2.86

  11  0.500  0.500  0.000-  86 2.86  87 2.86  90 2.86  91 2.86  70 2.86  71 2.86  74 2.86  75 2.86

  12  0.500  0.750  0.000-  87 2.86  88 2.86  91 2.86  92 2.86  71 2.86  72 2.86  75 2.86  76 2.86

  13  0.750  0.000  0.000-  89 2.86  92 2.86  93 2.86  96 2.86  73 2.86  76 2.86  77 2.86  80 2.86

  14  0.750  0.250  0.000-  89 2.86  90 2.86  93 2.86  94 2.86  73 2.86  74 2.86  77 2.86  78 2.86

  15  0.750  0.500  0.000-  90 2.86  91 2.86  94 2.86  95 2.86  74 2.86  75 2.86  78 2.86  79 2.86

  16  0.750  0.750  0.000-  91 2.86  92 2.86  95 2.86  96 2.86  75 2.86  76 2.86  79 2.86  80 2.86

  17  0.125  0.125  0.500-  33 2.86  34 2.86  37 2.86  38 2.86  49 2.86  50 2.86  53 2.86  54 2.86

  18  0.125  0.375  0.500-  34 2.86  35 2.86  38 2.86  39 2.86  50 2.86  51 2.86  54 2.86  55 2.86

  19  0.125  0.625  0.500-  35 2.86  36 2.86  39 2.86  40 2.86  51 2.86  52 2.86  55 2.86  56 2.86

  20  0.125  0.875  0.500-  33 2.86  36 2.86  37 2.86  40 2.86  49 2.86  52 2.86  53 2.86  56 2.86

  21  0.375  0.125  0.500-  37 2.86  38 2.86  41 2.86  42 2.86  53 2.86  54 2.86  57 2.86  58 2.86

  22  0.375  0.375  0.500-  38 2.86  39 2.86  42 2.86  43 2.86  54 2.86  55 2.86  58 2.86  59 2.86

  23  0.375  0.625  0.500-  39 2.86  40 2.86  43 2.86  44 2.86  55 2.86  56 2.86  59 2.86  60 2.86

  24  0.375  0.875  0.500-  37 2.86  40 2.86  41 2.86  44 2.86  53 2.86  56 2.86  57 2.86  60 2.86

  25  0.625  0.125  0.500-  41 2.86  42 2.86  45 2.86  46 2.86  57 2.86  58 2.86  61 2.86  62 2.86

  26  0.625  0.375  0.500-  42 2.86  43 2.86  46 2.86  47 2.86  58 2.86  59 2.86  62 2.86  63 2.86

  27  0.625  0.625  0.500-  43 2.86  44 2.86  47 2.86  48 2.86  59 2.86  60 2.86  63 2.86  64 2.86

  28  0.625  0.875  0.500-  41 2.86  44 2.86  45 2.86  48 2.86  57 2.86  60 2.86  61 2.86  64 2.86

  29  0.875  0.125  0.500-  33 2.86  34 2.86  45 2.86  46 2.86  49 2.86  50 2.86  61 2.86  62 2.86

  30  0.875  0.375  0.500-  34 2.86  35 2.86  46 2.86  47 2.86  50 2.86  51 2.86  62 2.86  63 2.86

  31  0.875  0.625  0.500-  35 2.86  36 2.86  47 2.86  48 2.86  51 2.86  52 2.86  63 2.86  64 2.86

  32  0.875  0.875  0.500-  33 2.86  36 2.86  45 2.86  48 2.86  49 2.86  52 2.86  61 2.86  64 2.86

  33  0.000  0.000  0.346-  17 2.86  20 2.86  29 2.86  32 2.86  81 3.13  84 3.13  93 3.13  96 3.13
                            34 3.23  36 3.23  37 3.23  45 3.23  49 3.45
  34  0.000  0.250  0.346-  17 2.86  18 2.86  29 2.86  30 2.86  81 3.13  82 3.13  93 3.13  94 3.13
                            33 3.23  35 3.23  38 3.23  46 3.23  50 3.45
  35  0.000  0.500  0.346-  18 2.86  19 2.86  30 2.86  31 2.86  82 3.13  83 3.13  94 3.13  95 3.13
                            34 3.23  36 3.23  39 3.23  47 3.23  51 3.45
  36  0.000  0.750  0.346-  19 2.86  20 2.86  31 2.86  32 2.86  83 3.13  84 3.13  95 3.13  96 3.13
                            33 3.23  35 3.23  40 3.23  48 3.23  52 3.45
  37  0.250  0.000  0.346-  17 2.86  20 2.86  21 2.86  24 2.86  81 3.13  84 3.13  85 3.13  88 3.13
                            33 3.23  38 3.23  40 3.23  41 3.23  53 3.45
  38  0.250  0.250  0.346-  17 2.86  18 2.86  21 2.86  22 2.86  81 3.13  82 3.13  85 3.13  86 3.13
                            34 3.23  37 3.23  39 3.23  42 3.23  54 3.45
  39  0.250  0.500  0.346-  18 2.86  19 2.86  22 2.86  23 2.86  82 3.13  83 3.13  86 3.13  87 3.13
                            35 3.23  38 3.23  40 3.23  43 3.23  55 3.45
  40  0.250  0.750  0.346-  19 2.86  20 2.86  23 2.86  24 2.86  83 3.13  84 3.13  87 3.13  88 3.13
                            36 3.23  37 3.23  39 3.23  44 3.23  56 3.45
  41  0.500  0.000  0.346-  21 2.86  24 2.86  25 2.86  28 2.86  85 3.13  88 3.13  89 3.13  92 3.13
                            37 3.23  42 3.23  44 3.23  45 3.23  57 3.45
  42  0.500  0.250  0.346-  21 2.86  22 2.86  25 2.86  26 2.86  85 3.13  86 3.13  89 3.13  90 3.13
                            38 3.23  41 3.23  43 3.23  46 3.23  58 3.45
  43  0.500  0.500  0.346-  22 2.86  23 2.86  26 2.86  27 2.86  86 3.13  87 3.13  90 3.13  91 3.13
                            39 3.23  42 3.23  44 3.23  47 3.23  59 3.45
  44  0.500  0.750  0.346-  23 2.86  24 2.86  27 2.86  28 2.86  87 3.13  88 3.13  91 3.13  92 3.13
                            40 3.23  41 3.23  43 3.23  48 3.23  60 3.45
  45  0.750  0.000  0.346-  25 2.86  28 2.86  29 2.86  32 2.86  89 3.13  92 3.13  93 3.13  96 3.13
                            33 3.23  41 3.23  46 3.23  48 3.23  61 3.45
  46  0.750  0.250  0.346-  25 2.86  26 2.86  29 2.86  30 2.86  89 3.13  90 3.13  93 3.13  94 3.13
                            34 3.23  42 3.23  45 3.23  47 3.23  62 3.45
  47  0.750  0.500  0.346-  26 2.86  27 2.86  30 2.86  31 2.86  90 3.13  91 3.13  94 3.13  95 3.13
                            35 3.23  43 3.23  46 3.23  48 3.23  63 3.45
  48  0.750  0.750  0.346-  27 2.86  28 2.86  31 2.86  32 2.86  91 3.13  92 3.13  95 3.13  96 3.13
                            36 3.23  44 3.23  45 3.23  47 3.23  64 3.45
  49  0.000  0.000  0.654-  17 2.86  20 2.86  29 2.86  32 2.86  65 3.13  68 3.13  77 3.13  80 3.13
                            50 3.23  52 3.23  53 3.23  61 3.23  33 3.45
  50  0.000  0.250  0.654-  17 2.86  18 2.86  29 2.86  30 2.86  65 3.13  66 3.13  77 3.13  78 3.13
                            49 3.23  51 3.23  54 3.23  62 3.23  34 3.45
  51  0.000  0.500  0.654-  18 2.86  19 2.86  30 2.86  31 2.86  66 3.13  67 3.13  78 3.13  79 3.13
                            50 3.23  52 3.23  55 3.23  63 3.23  35 3.45
  52  0.000  0.750  0.654-  19 2.86  20 2.86  31 2.86  32 2.86  67 3.13  68 3.13  79 3.13  80 3.13
                            49 3.23  51 3.23  56 3.23  64 3.23  36 3.45
  53  0.250  0.000  0.654-  17 2.86  20 2.86  21 2.86  24 2.86  65 3.13  68 3.13  69 3.13  72 3.13
                            49 3.23  54 3.23  56 3.23  57 3.23  37 3.45
  54  0.250  0.250  0.654-  17 2.86  18 2.86  21 2.86  22 2.86  65 3.13  66 3.13  69 3.13  70 3.13
                            50 3.23  53 3.23  55 3.23  58 3.23  38 3.45
  55  0.250  0.500  0.654-  18 2.86  19 2.86  22 2.86  23 2.86  66 3.13  67 3.13  70 3.13  71 3.13
                            51 3.23  54 3.23  56 3.23  59 3.23  39 3.45
  56  0.250  0.750  0.654-  19 2.86  20 2.86  23 2.86  24 2.86  67 3.13  68 3.13  71 3.13  72 3.13
                            52 3.23  53 3.23  55 3.23  60 3.23  40 3.45
  57  0.500  0.000  0.654-  21 2.86  24 2.86  25 2.86  28 2.86  69 3.13  72 3.13  73 3.13  76 3.13
                            53 3.23  58 3.23  60 3.23  61 3.23  41 3.45
  58  0.500  0.250  0.654-  21 2.86  22 2.86  25 2.86  26 2.86  69 3.13  70 3.13  73 3.13  74 3.13
                            54 3.23  57 3.23  59 3.23  62 3.23  42 3.45
  59  0.500  0.500  0.654-  22 2.86  23 2.86  26 2.86  27 2.86  70 3.13  71 3.13  74 3.13  75 3.13
                            55 3.23  58 3.23  60 3.23  63 3.23  43 3.45
  60  0.500  0.750  0.654-  23 2.86  24 2.86  27 2.86  28 2.86  71 3.13  72 3.13  75 3.13  76 3.13
                            56 3.23  57 3.23  59 3.23  64 3.23  44 3.45
  61  0.750  0.000  0.654-  25 2.86  28 2.86  29 2.86  32 2.86  73 3.13  76 3.13  77 3.13  80 3.13
                            49 3.23  57 3.23  62 3.23  64 3.23  45 3.45
  62  0.750  0.250  0.654-  25 2.86  26 2.86  29 2.86  30 2.86  73 3.13  74 3.13  77 3.13  78 3.13
                            50 3.23  58 3.23  61 3.23  63 3.23  46 3.45
  63  0.750  0.500  0.654-  26 2.86  27 2.86  30 2.86  31 2.86  74 3.13  75 3.13  78 3.13  79 3.13
                            51 3.23  59 3.23  62 3.23  64 3.23  47 3.45
  64  0.750  0.750  0.654-  27 2.86  28 2.86  31 2.86  32 2.86  75 3.13  76 3.13  79 3.13  80 3.13
                            52 3.23  60 3.23  61 3.23  63 3.23  48 3.45
  65  0.125  0.125  0.846-   1 2.86   2 2.86   5 2.86   6 2.86  49 3.13  50 3.13  53 3.13  54 3.13
                            66 3.23  68 3.23  69 3.23  77 3.23  81 3.45
  66  0.125  0.375  0.846-   2 2.86   3 2.86   6 2.86   7 2.86  50 3.13  51 3.13  54 3.13  55 3.13
                            65 3.23  67 3.23  70 3.23  78 3.23  82 3.45
  67  0.125  0.625  0.846-   3 2.86   4 2.86   7 2.86   8 2.86  51 3.13  52 3.13  55 3.13  56 3.13
                            66 3.23  68 3.23  71 3.23  79 3.23  83 3.45
  68  0.125  0.875  0.846-   1 2.86   4 2.86   5 2.86   8 2.86  49 3.13  52 3.13  53 3.13  56 3.13
                            65 3.23  67 3.23  72 3.23  80 3.23  84 3.45
  69  0.375  0.125  0.846-   5 2.86   6 2.86   9 2.86  10 2.86  53 3.13  54 3.13  57 3.13  58 3.13
                            65 3.23  70 3.23  72 3.23  73 3.23  85 3.45
  70  0.375  0.375  0.846-   6 2.86   7 2.86  10 2.86  11 2.86  54 3.13  55 3.13  58 3.13  59 3.13
                            66 3.23  69 3.23  71 3.23  74 3.23  86 3.45
  71  0.375  0.625  0.846-   7 2.86   8 2.86  11 2.86  12 2.86  55 3.13  56 3.13  59 3.13  60 3.13
                            67 3.23  70 3.23  72 3.23  75 3.23  87 3.45
  72  0.375  0.875  0.846-   5 2.86   8 2.86   9 2.86  12 2.86  53 3.13  56 3.13  57 3.13  60 3.13
                            68 3.23  69 3.23  71 3.23  76 3.23  88 3.45
  73  0.625  0.125  0.846-   9 2.86  10 2.86  13 2.86  14 2.86  57 3.13  58 3.13  61 3.13  62 3.13
                            69 3.23  74 3.23  76 3.23  77 3.23  89 3.45
  74  0.625  0.375  0.846-  10 2.86  11 2.86  14 2.86  15 2.86  58 3.13  59 3.13  62 3.13  63 3.13
                            70 3.23  73 3.23  75 3.23  78 3.23  90 3.45
  75  0.625  0.625  0.846-  11 2.86  12 2.86  15 2.86  16 2.86  59 3.13  60 3.13  63 3.13  64 3.13
                            71 3.23  74 3.23  76 3.23  79 3.23  91 3.45
  76  0.625  0.875  0.846-   9 2.86  12 2.86  13 2.86  16 2.86  57 3.13  60 3.13  61 3.13  64 3.13
                            72 3.23  73 3.23  75 3.23  80 3.23  92 3.45
  77  0.875  0.125  0.846-   1 2.86   2 2.86  13 2.86  14 2.86  49 3.13  50 3.13  61 3.13  62 3.13
                            65 3.23  73 3.23  78 3.23  80 3.23  93 3.45
  78  0.875  0.375  0.846-   2 2.86   3 2.86  14 2.86  15 2.86  50 3.13  51 3.13  62 3.13  63 3.13
                            66 3.23  74 3.23  77 3.23  79 3.23  94 3.45
  79  0.875  0.625  0.846-   3 2.86   4 2.86  15 2.86  16 2.86  51 3.13  52 3.13  63 3.13  64 3.13
                            67 3.23  75 3.23  78 3.23  80 3.23  95 3.45
  80  0.875  0.875  0.846-   1 2.86   4 2.86  13 2.86  16 2.86  49 3.13  52 3.13  61 3.13  64 3.13
                            68 3.23  76 3.23  77 3.23  79 3.23  96 3.45
  81  0.125  0.125  0.154-   1 2.86   2 2.86   5 2.86   6 2.86  33 3.13  34 3.13  37 3.13  38 3.13
                            82 3.23  84 3.23  85 3.23  93 3.23  65 3.45
  82  0.125  0.375  0.154-   2 2.86   3 2.86   6 2.86   7 2.86  34 3.13  35 3.13  38 3.13  39 3.13
                            81 3.23  83 3.23  86 3.23  94 3.23  66 3.45
  83  0.125  0.625  0.154-   3 2.86   4 2.86   7 2.86   8 2.86  35 3.13  36 3.13  39 3.13  40 3.13
                            82 3.23  84 3.23  87 3.23  95 3.23  67 3.45
  84  0.125  0.875  0.154-   1 2.86   4 2.86   5 2.86   8 2.86  33 3.13  36 3.13  37 3.13  40 3.13
                            81 3.23  83 3.23  88 3.23  96 3.23  68 3.45
  85  0.375  0.125  0.154-   5 2.86   6 2.86   9 2.86  10 2.86  37 3.13  38 3.13  41 3.13  42 3.13
                            81 3.23  86 3.23  88 3.23  89 3.23  69 3.45
  86  0.375  0.375  0.154-   6 2.86   7 2.86  10 2.86  11 2.86  38 3.13  39 3.13  42 3.13  43 3.13
                            82 3.23  85 3.23  87 3.23  90 3.23  70 3.45
  87  0.375  0.625  0.154-   7 2.86   8 2.86  11 2.86  12 2.86  39 3.13  40 3.13  43 3.13  44 3.13
                            83 3.23  86 3.23  88 3.23  91 3.23  71 3.45
  88  0.375  0.875  0.154-   5 2.86   8 2.86   9 2.86  12 2.86  37 3.13  40 3.13  41 3.13  44 3.13
                            84 3.23  85 3.23  87 3.23  92 3.23  72 3.45
  89  0.625  0.125  0.154-   9 2.86  10 2.86  13 2.86  14 2.86  41 3.13  42 3.13  45 3.13  46 3.13
                            85 3.23  90 3.23  92 3.23  93 3.23  73 3.45
  90  0.625  0.375  0.154-  10 2.86  11 2.86  14 2.86  15 2.86  42 3.13  43 3.13  46 3.13  47 3.13
                            86 3.23  89 3.23  91 3.23  94 3.23  74 3.45
  91  0.625  0.625  0.154-  11 2.86  12 2.86  15 2.86  16 2.86  43 3.13  44 3.13  47 3.13  48 3.13
                            87 3.23  90 3.23  92 3.23  95 3.23  75 3.45
  92  0.625  0.875  0.154-   9 2.86  12 2.86  13 2.86  16 2.86  41 3.13  44 3.13  45 3.13  48 3.13
                            88 3.23  89 3.23  91 3.23  96 3.23  76 3.45
  93  0.875  0.125  0.154-   1 2.86   2 2.86  13 2.86  14 2.86  33 3.13  34 3.13  45 3.13  46 3.13
                            81 3.23  89 3.23  94 3.23  96 3.23  77 3.45
  94  0.875  0.375  0.154-   2 2.86   3 2.86  14 2.86  15 2.86  34 3.13  35 3.13  46 3.13  47 3.13
                            82 3.23  90 3.23  93 3.23  95 3.23  78 3.45
  95  0.875  0.625  0.154-   3 2.86   4 2.86  15 2.86  16 2.86  35 3.13  36 3.13  47 3.13  48 3.13
                            83 3.23  91 3.23  94 3.23  96 3.23  79 3.45
  96  0.875  0.875  0.154-   1 2.86   4 2.86  13 2.86  16 2.86  33 3.13  36 3.13  45 3.13  48 3.13
                            84 3.23  92 3.23  93 3.23  95 3.23  80 3.45
 

IMPORTANT INFORMATION: All symmetrisations will be switched off!
NOSYMM: (Re-)initialisation of all symmetry stuff for point group C_1.


----------------------------------------------------------------------------------------

                                     Primitive cell                                     

  volume of cell :    1864.9337

  direct lattice vectors                    reciprocal lattice vectors
    12.912303925  0.000000000  0.000000000     0.077445513  0.000000000  0.000000000
     0.000000000 12.912303925  0.000000000     0.000000000  0.077445513  0.000000000
     0.000000000  0.000000000 11.185513496     0.000000000  0.000000000  0.089401349

  length of vectors
    12.912303925 12.912303925 11.185513496     0.077445513  0.077445513  0.089401349

  position of ions in fractional coordinates (direct lattice)
     0.000000000  0.000000000  0.000000000
     0.000000000  0.250000000  0.000000000
     0.000000000  0.500000000  0.000000000
     0.000000000  0.750000000  0.000000000
     0.250000000  0.000000000  0.000000000
     0.250000000  0.250000000  0.000000000
     0.250000000  0.500000000  0.000000000
     0.250000000  0.750000000  0.000000000
     0.500000000  0.000000000  0.000000000
     0.500000000  0.250000000  0.000000000
     0.500000000  0.500000000  0.000000000
     0.500000000  0.750000000  0.000000000
     0.750000000  0.000000000  0.000000000
     0.750000000  0.250000000  0.000000000
     0.750000000  0.500000000  0.000000000
     0.750000000  0.750000000  0.000000000
     0.125000000  0.125000000  0.500000000
     0.125000000  0.375000000  0.500000000
     0.125000000  0.625000000  0.500000000
     0.125000000  0.875000000  0.500000000
     0.375000000  0.125000000  0.500000000
     0.375000000  0.375000000  0.500000000
     0.375000000  0.625000000  0.500000000
     0.375000000  0.875000000  0.500000000
     0.625000000  0.125000000  0.500000000
     0.625000000  0.375000000  0.500000000
     0.625000000  0.625000000  0.500000000
     0.625000000  0.875000000  0.500000000
     0.875000000  0.125000000  0.500000000
     0.875000000  0.375000000  0.500000000
     0.875000000  0.625000000  0.500000000
     0.875000000  0.875000000  0.500000000
     0.000000000  0.000000000  0.345766068
     0.000000000  0.250000000  0.345766068
     0.000000000  0.500000000  0.345766068
     0.000000000  0.750000000  0.345766068
     0.250000000  0.000000000  0.345766068
     0.250000000  0.250000000  0.345766068
     0.250000000  0.500000000  0.345766068
     0.250000000  0.750000000  0.345766068
     0.500000000  0.000000000  0.345766068
     0.500000000  0.250000000  0.345766068
     0.500000000  0.500000000  0.345766068
     0.500000000  0.750000000  0.345766068
     0.750000000  0.000000000  0.345766068
     0.750000000  0.250000000  0.345766068
     0.750000000  0.500000000  0.345766068
     0.750000000  0.750000000  0.345766068
     0.000000000  0.000000000  0.654233932
     0.000000000  0.250000000  0.654233932
     0.000000000  0.500000000  0.654233932
     0.000000000  0.750000000  0.654233932
     0.250000000  0.000000000  0.654233932
     0.250000000  0.250000000  0.654233932
     0.250000000  0.500000000  0.654233932
     0.250000000  0.750000000  0.654233932
     0.500000000  0.000000000  0.654233932
     0.500000000  0.250000000  0.654233932
     0.500000000  0.500000000  0.654233932
     0.500000000  0.750000000  0.654233932
     0.750000000  0.000000000  0.654233932
     0.750000000  0.250000000  0.654233932
     0.750000000  0.500000000  0.654233932
     0.750000000  0.750000000  0.654233932
     0.125000000  0.125000000  0.845766068
     0.125000000  0.375000000  0.845766068
     0.125000000  0.625000000  0.845766068
     0.125000000  0.875000000  0.845766068
     0.375000000  0.125000000  0.845766068
     0.375000000  0.375000000  0.845766068
     0.375000000  0.625000000  0.845766068
     0.375000000  0.875000000  0.845766068
     0.625000000  0.125000000  0.845766068
     0.625000000  0.375000000  0.845766068
     0.625000000  0.625000000  0.845766068
     0.625000000  0.875000000  0.845766068
     0.875000000  0.125000000  0.845766068
     0.875000000  0.375000000  0.845766068
     0.875000000  0.625000000  0.845766068
     0.875000000  0.875000000  0.845766068
     0.125000000  0.125000000  0.154233918
     0.125000000  0.375000000  0.154233918
     0.125000000  0.625000000  0.154233918
     0.125000000  0.875000000  0.154233918
     0.375000000  0.125000000  0.154233918
     0.375000000  0.375000000  0.154233918
     0.375000000  0.625000000  0.154233918
     0.375000000  0.875000000  0.154233918
     0.625000000  0.125000000  0.154233918
     0.625000000  0.375000000  0.154233918
     0.625000000  0.625000000  0.154233918
     0.625000000  0.875000000  0.154233918
     0.875000000  0.125000000  0.154233918
     0.875000000  0.375000000  0.154233918
     0.875000000  0.625000000  0.154233918
     0.875000000  0.875000000  0.154233918

  ion indices of the primitive-cell ions
   primitive index   ion index
                 1           1
                 2           2
                 3           3
                 4           4
                 5           5
                 6           6
                 7           7
                 8           8
                 9           9
                10          10
                11          11
                12          12
                13          13
                14          14
                15          15
                16          16
                17          17
                18          18
                19          19
                20          20
                21          21
                22          22
                23          23
                24          24
                25          25
                26          26
                27          27
                28          28
                29          29
                30          30
                31          31
                32          32
                33          33
                34          34
                35          35
                36          36
                37          37
                38          38
                39          39
                40          40
                41          41
                42          42
                43          43
                44          44
                45          45
                46          46
                47          47
                48          48
                49          49
                50          50
                51          51
                52          52
                53          53
                54          54
                55          55
                56          56
                57          57
                58          58
                59          59
                60          60
                61          61
                62          62
                63          63
                64          64
                65          65
                66          66
                67          67
                68          68
                69          69
                70          70
                71          71
                72          72
                73          73
                74          74
                75          75
                76          76
                77          77
                78          78
                79          79
                80          80
                81          81
                82          82
                83          83
                84          84
                85          85
                86          86
                87          87
                88          88
                89          89
                90          90
                91          91
                92          92
                93          93
                94          94
                95          95
                96          96

----------------------------------------------------------------------------------------

 
 
 KPOINTS: KPOINTS created by Atomic Simulation Env

Automatic generation of k-mesh.
 Grid dimensions derived from RKLEN:
 generate k-points for:    3    3    3

 Generating k-lattice:

  Cartesian coordinates                     Fractional coordinates (reciprocal lattice)
     0.025815171  0.000000000  0.000000000     0.333333333  0.000000000  0.000000000
     0.000000000  0.025815171  0.000000000     0.000000000  0.333333333  0.000000000
     0.000000000  0.000000000  0.029800450     0.000000000  0.000000000  0.333333333

  Length of vectors
     0.025815171  0.025815171  0.029800450

  Shift w.r.t. Gamma in fractional coordinates (k-lattice)
     0.000000000  0.000000000  0.000000000

 
 Subroutine IBZKPT returns following result:
 ===========================================
 
 Found     27 irreducible k-points:
 
 Following reciprocal coordinates:
            Coordinates               Weight
  0.000000  0.000000  0.000000      1.000000
  0.333333  0.000000  0.000000      1.000000
 -0.333333  0.000000  0.000000      1.000000
  0.000000  0.333333  0.000000      1.000000
  0.333333  0.333333  0.000000      1.000000
 -0.333333  0.333333  0.000000      1.000000
  0.000000 -0.333333  0.000000      1.000000
  0.333333 -0.333333  0.000000      1.000000
 -0.333333 -0.333333  0.000000      1.000000
  0.000000  0.000000  0.333333      1.000000
  0.333333  0.000000  0.333333      1.000000
 -0.333333  0.000000  0.333333      1.000000
  0.000000  0.333333  0.333333      1.000000
  0.333333  0.333333  0.333333      1.000000
 -0.333333  0.333333  0.333333      1.000000
  0.000000 -0.333333  0.333333      1.000000
  0.333333 -0.333333  0.333333      1.000000
 -0.333333 -0.333333  0.333333      1.000000
  0.000000  0.000000 -0.333333      1.000000
  0.333333  0.000000 -0.333333      1.000000
 -0.333333  0.000000 -0.333333      1.000000
  0.000000  0.333333 -0.333333      1.000000
  0.333333  0.333333 -0.333333      1.000000
 -0.333333  0.333333 -0.333333      1.000000
  0.000000 -0.333333 -0.333333      1.000000
  0.333333 -0.333333 -0.333333      1.000000
 -0.333333 -0.333333 -0.333333      1.000000
 
 Following cartesian coordinates:
            Coordinates               Weight
  0.000000  0.000000  0.000000      1.000000
  0.025815  0.000000  0.000000      1.000000
 -0.025815  0.000000  0.000000      1.000000
  0.000000  0.025815  0.000000      1.000000
  0.025815  0.025815  0.000000      1.000000
 -0.025815  0.025815  0.000000      1.000000
  0.000000 -0.025815  0.000000      1.000000
  0.025815 -0.025815  0.000000      1.000000
 -0.025815 -0.025815  0.000000      1.000000
  0.000000  0.000000  0.029800      1.000000
  0.025815  0.000000  0.029800      1.000000
 -0.025815  0.000000  0.029800      1.000000
  0.000000  0.025815  0.029800      1.000000
  0.025815  0.025815  0.029800      1.000000
 -0.025815  0.025815  0.029800      1.000000
  0.000000 -0.025815  0.029800      1.000000
  0.025815 -0.025815  0.029800      1.000000
 -0.025815 -0.025815  0.029800      1.000000
  0.000000  0.000000 -0.029800      1.000000
  0.025815  0.000000 -0.029800      1.000000
 -0.025815  0.000000 -0.029800      1.000000
  0.000000  0.025815 -0.029800      1.000000
  0.025815  0.025815 -0.029800      1.000000
 -0.025815  0.025815 -0.029800      1.000000
  0.000000 -0.025815 -0.029800      1.000000
  0.025815 -0.025815 -0.029800      1.000000
 -0.025815 -0.025815 -0.029800      1.000000
 


--------------------------------------------------------------------------------------------------------




 Dimension of arrays:
   k-points           NKPTS =     27   k-points in BZ     NKDIM =     27   number of bands    NBANDS=    816
   number of dos      NEDOS =    301   number of ions     NIONS =     96
   non local maximal  LDIM  =      6   non local SUM 2l+1 LMDIM =     18
   total plane-waves  NPLWV = 774144
   max r-space proj   IRMAX =   6139   max aug-charges    IRDMAX=  17458
   dimension x,y,z NGX =    96 NGY =   96 NGZ =   84
   dimension x,y,z NGXF=   192 NGYF=  192 NGZF=  168
   support grid    NGXF=   192 NGYF=  192 NGZF=  168
   ions per type =              32  64
   NGX,Y,Z   is equivalent  to a cutoff of  12.36, 12.36, 12.48 a.u.
   NGXF,Y,Z  is equivalent  to a cutoff of  24.72, 24.72, 24.97 a.u.

 SYSTEM =  Zr2Cu prim                              
 POSCAR =  Zirconium copper (2/1) - tetragonal part

 Startparameter for this run:
   NWRITE =      2    write-flag & timer
   PREC   = accura    normal or accurate (medium, high low for compatibility)
   ISTART =      0    job   : 0-new  1-cont  2-samecut
   ICHARG =      2    charge: 1-file 2-atom 10-const
   ISPIN  =      2    spin polarized calculation?
   LNONCOLLINEAR =      F non collinear calculations
   LSORBIT =      F    spin-orbit coupling
   INIWAV =      1    electr: 0-lowe 1-rand  2-diag
   LASPH  =      F    aspherical Exc in radial PAW
 Electronic Relaxation 1
   ENCUT  =  500.0 eV  36.75 Ry    6.06 a.u.  23.54 23.54 20.39*2*pi/ulx,y,z
   ENINI  =  500.0     initial cutoff
   ENAUG  =  758.2 eV  augmentation charge cutoff
   NELM   =    200;   NELMIN=  2; NELMDL= -5     # of ELM steps 
   EDIFF  = 0.1E-05   stopping-criterion for ELM
   LREAL  =      T    real-space projection
   NLSPLINE    = F    spline interpolate recip. space projectors
   LCOMPAT=      F    compatible to vasp.4.4
   GGA_COMPAT  = T    GGA compatible to vasp.4.4-vasp.4.6
   LMAXPAW     = -100 max onsite density
   LMAXMIX     =    2 max onsite mixed and CHGCAR
   VOSKOWN=      0    Vosko Wilk Nusair interpolation
   ROPT   =   -0.00025  -0.00025
 Ionic relaxation
   EDIFFG = -.2E-01   stopping-criterion for IOM
   NSW    =     60    number of steps for IOM
   NBLOCK =      1;   KBLOCK =     60    inner block; outer block 
   IBRION =      2    ionic relax: 0-MD 1-quasi-New 2-CG
   NFREE  =      1    steps in history (QN), initial steepest desc. (CG)
   ISIF   =      2    stress and relaxation
   IWAVPR =     11    prediction:  0-non 1-charg 2-wave 3-comb
   ISYM   =     -1    0-nonsym 1-usesym 2-fastsym
   LCORR  =      T    Harris-Foulkes like correction to forces

   POTIM  = 0.2000    time-step for ionic-motion
   TEIN   =    0.0    initial temperature
   TEBEG  =    0.0;   TEEND  =   0.0 temperature during run
   SMASS  =  -3.00    Nose mass-parameter (am)
   estimated Nose-frequenzy (Omega)   =  0.10E-29 period in steps = 0.31E+47 mass=  -0.381E-26a.u.
   SCALEE = 1.0000    scale energy and forces
   NPACO  =    256;   APACO  = 10.0  distance and # of slots for P.C.
   PSTRESS=    0.0 pullay stress

  Mass of Ions in am
   POMASS =  63.55 91.22
  Ionic Valenz
   ZVAL   =  17.00 12.00
  Atomic Wigner-Seitz radii
   RWIGS  =  -1.00 -1.00
  virtual crystal weights 
   VCA    =   1.00  1.00
   NELECT =    1312.0000    total number of electrons
   NUPDOWN=      -1.0000    fix difference up-down

 DOS related values:
   EMIN   =  10.00;   EMAX   =-10.00  energy-range for DOS
   EFERMI =   0.00;   METHOD = LEGACY      
   ISMEAR =     1;   SIGMA  =   0.20  broadening in eV -4-tet -1-fermi 0-gaus
   EFERMI_NEDOS =   21; number of points for ismear=-14 and -15

 Electronic relaxation 2 (details)
   IALGO  =     38    algorithm
   LDIAG  =      T    sub-space diagonalisation (order eigenvalues)
   LSUBROT=      F    optimize rotation matrix (better conditioning)
   TURBO    =      0    0=normal 1=particle mesh
   IRESTART =      0    0=no restart 2=restart with 2 vectors
   NREBOOT  =      0    no. of reboots
   NMIN     =      0    reboot dimension
   EREF     =   0.00    reference energy to select bands
   IMIX   =      4    mixing-type and parameters
     AMIX     =   0.40;   BMIX     =  1.00
     AMIX_MAG =   1.60;   BMIX_MAG =  1.00
     AMIN     =   0.10
     WC   =   100.;   INIMIX=   1;  MIXPRE=   1;  MAXMIX= -45

 Intra band minimization:
   WEIMIN = 0.0010     energy-eigenvalue tresh-hold
   EBREAK =  0.31E-09  absolut break condition
   DEPER  =   0.30     relativ break condition  

   TIME   =   0.40     timestep for ELM

  volume/ion in A,a.u.               =      19.43       131.10
  Fermi-wavevector in a.u.,A,eV,Ry     =   1.456012  2.751464 28.843958  2.119971
  Thomas-Fermi vector in A             =   2.572980
 
 Write flags
   LWAVE        =      F    write WAVECAR
   LDOWNSAMPLE  =      F    k-point downsampling of WAVECAR
   LCHARG       =      T    write CHGCAR
   LVTOT        =      F    write LOCPOT, total local potential
   LVHAR        =      F    write LOCPOT, Hartree potential only
   WRT_POTENTIAL= false  ! write potential to hdf5 file
   LELF         =      F    write electronic localiz. function (ELF)
   LORBIT       =      0    0 simple, 1 ext, 2 COOP (PROOUT), +10 PAW based schemes


 Python interface
   PLUGINS active      =      F    recompile with -DPLUGINS to activate
 
 Dipole corrections
   LMONO      =      F    monopole corrections only (constant potential shift)
   LDIPOL     =      F    correct potential (dipole corrections)
   IDIPOL     =      0    1-x, 2-y, 3-z, 4-all directions 
   EPSILON    =  1.0000000 bulk dielectric constant
   LVACPOTAV  =      F  vacuum potentials using an averaging scheme for the charge density
   VACPOTFLAT =  0.1000000 required flatness to determine vacuum potential
 
Coulomb truncation method
  LTRUNCATE          =      F  Coulomb kernel truncation to be used
  IDIMENSIONALITY    =      3  Dimensionality of cutoff (0 molecules / 2 surfaces)
  ISURFACE           =     -1  Direction of surface normal
  LCOARSEN           =      F  Coarsen the charge grid before padding, preferred

 
 Exchange correlation treatment:
   GGA     = PE    functional components
   XC_C    = 1    coefficients multiplying the functional components
   LIBXC   =     F    Libxc                    
   VOSKOWN =     0    Vosko Wilk Nusair interpolation
   LHFCALC =     F    Hartree Fock is set to
   LHFONE  =     F    Hartree Fock one center treatment
   AEXX    =    0.0000 exact exchange contribution

 Parameters of functionals:
   PE:
     No parameter
 
 Van der Waals corrections
   IVDW    =     0    specifies the selected vdW correction

 Linear response parameters
   LEPSILON=     F    determine dielectric tensor
   LRPA    =     F    only Hartree local field effects (RPA)
   LNABLA  =     F    use nabla operator in PAW spheres
   LVEL    =     F    velocity operator in full k-point grid
   CSHIFT  =0.1000    complex shift for real part using Kramers Kronig
   OMEGAMAX=  -1.0    maximum frequency
   DEG_THRESHOLD= 0.2000000E-02 threshold for treating states as degnerate
   RTIME   =   -0.100 relaxation time in fs
  (WPLASMAI=    0.000 imaginary part of plasma frequency in eV, 0.658/RTIME)
   DFIELD  = 0.0000000 0.0000000 0.0000000 field for delta impulse in time
 
  Optional k-point grid parameters
   LKPOINTS_OPT  =     F    use optional k-point grid
   KPOINTS_OPT_MODE=     1    mode for optional k-point grid
 
 Orbital magnetization related:
   ORBITALMAG=     F  switch on orbital magnetization
   LCHIMAG   =     F  perturbation theory with respect to B field
   DQ        =  0.001000  dq finite difference perturbation B field
   LLRAUG    =     F  two centre corrections for induced B field
   LBONE     =     F  B-component reconstruction in AE one-centre
   LVGVCALC  =     T  calculate vGv susceptibility
   LVGVAPPL  =     F  apply vGv susceptibility instead of pGv for G=0

 Random number generation:
   RANDOM_GENERATOR = DEFAULT
   PCG_SEED         = not used


--------------------------------------------------------------------------------------------------------


 conjugate gradient relaxation of ions
 charge density and potential will be updated during run
 spin polarized calculation
 Variant of blocked Davidson
 Davidson routine will perform the subspace rotation
 perform sub-space diagonalisation
    after iterative eigenvector-optimisation
 modified Broyden-mixing scheme, WC =      100.0
 initial mixing is a Kerker type mixing with AMIX =  0.4000 and BMIX =      1.0000
 Hartree-type preconditioning will be used
 using additional bands          160
 real space projection scheme for non local part
 use partial core corrections
 calculate Harris-corrections to forces 
   (improved forces if not selfconsistent)
 use gradient corrections 
 use of overlap-Matrix (Vanderbilt PP)
 Methfessel and Paxton  Order N= 1 SIGMA  =   0.20


--------------------------------------------------------------------------------------------------------


  energy-cutoff  :      500.00
  volume of cell :     1864.93
      direct lattice vectors                 reciprocal lattice vectors
    12.912303925  0.000000000  0.000000000     0.077445513  0.000000000  0.000000000
     0.000000000 12.912303925  0.000000000     0.000000000  0.077445513  0.000000000
     0.000000000  0.000000000 11.185513496     0.000000000  0.000000000  0.089401349

  length of vectors
    12.912303925 12.912303925 11.185513496     0.077445513  0.077445513  0.089401349


 
 k-points in units of 2pi/SCALE and weight: KPOINTS created by Atomic Simulation Env
   0.00000000  0.00000000  0.00000000       0.037
   0.02581517  0.00000000  0.00000000       0.037
  -0.02581517  0.00000000  0.00000000       0.037
   0.00000000  0.02581517  0.00000000       0.037
   0.02581517  0.02581517  0.00000000       0.037
  -0.02581517  0.02581517  0.00000000       0.037
   0.00000000 -0.02581517  0.00000000       0.037
   0.02581517 -0.02581517  0.00000000       0.037
  -0.02581517 -0.02581517  0.00000000       0.037
   0.00000000  0.00000000  0.02980045       0.037
   0.02581517  0.00000000  0.02980045       0.037
  -0.02581517  0.00000000  0.02980045       0.037
   0.00000000  0.02581517  0.02980045       0.037
   0.02581517  0.02581517  0.02980045       0.037
  -0.02581517  0.02581517  0.02980045       0.037
   0.00000000 -0.02581517  0.02980045       0.037
   0.02581517 -0.02581517  0.02980045       0.037
  -0.02581517 -0.02581517  0.02980045       0.037
   0.00000000  0.00000000 -0.02980045       0.037
   0.02581517  0.00000000 -0.02980045       0.037
  -0.02581517  0.00000000 -0.02980045       0.037
   0.00000000  0.02581517 -0.02980045       0.037
   0.02581517  0.02581517 -0.02980045       0.037
  -0.02581517  0.02581517 -0.02980045       0.037
   0.00000000 -0.02581517 -0.02980045       0.037
   0.02581517 -0.02581517 -0.02980045       0.037
  -0.02581517 -0.02581517 -0.02980045       0.037
 
 k-points in reciprocal lattice and weights: KPOINTS created by Atomic Simulation Env
   0.00000000  0.00000000  0.00000000       0.037
   0.33333333  0.00000000  0.00000000       0.037
  -0.33333333  0.00000000  0.00000000       0.037
   0.00000000  0.33333333  0.00000000       0.037
   0.33333333  0.33333333  0.00000000       0.037
  -0.33333333  0.33333333  0.00000000       0.037
   0.00000000 -0.33333333  0.00000000       0.037
   0.33333333 -0.33333333  0.00000000       0.037
  -0.33333333 -0.33333333  0.00000000       0.037
   0.00000000  0.00000000  0.33333333       0.037
   0.33333333  0.00000000  0.33333333       0.037
  -0.33333333  0.00000000  0.33333333       0.037
   0.00000000  0.33333333  0.33333333       0.037
   0.33333333  0.33333333  0.33333333       0.037
  -0.33333333  0.33333333  0.33333333       0.037
   0.00000000 -0.33333333  0.33333333       0.037
   0.33333333 -0.33333333  0.33333333       0.037
  -0.33333333 -0.33333333  0.33333333       0.037
   0.00000000  0.00000000 -0.33333333       0.037
   0.33333333  0.00000000 -0.33333333       0.037
  -0.33333333  0.00000000 -0.33333333       0.037
   0.00000000  0.33333333 -0.33333333       0.037
   0.33333333  0.33333333 -0.33333333       0.037
  -0.33333333  0.33333333 -0.33333333       0.037
   0.00000000 -0.33333333 -0.33333333       0.037
   0.33333333 -0.33333333 -0.33333333       0.037
  -0.33333333 -0.33333333 -0.33333333       0.037
 
 position of ions in fractional coordinates (direct lattice) 
   0.00000000  0.00000000  0.00000000
   0.00000000  0.25000000  0.00000000
   0.00000000  0.50000000  0.00000000
   0.00000000  0.75000000  0.00000000
   0.25000000  0.00000000  0.00000000
   0.25000000  0.25000000  0.00000000
   0.25000000  0.50000000  0.00000000
   0.25000000  0.75000000  0.00000000
   0.50000000  0.00000000  0.00000000
   0.50000000  0.25000000  0.00000000
   0.50000000  0.50000000  0.00000000
   0.50000000  0.75000000  0.00000000
   0.75000000  0.00000000  0.00000000
   0.75000000  0.25000000  0.00000000
   0.75000000  0.50000000  0.00000000
   0.75000000  0.75000000  0.00000000
   0.12500000  0.12500000  0.50000000
   0.12500000  0.37500000  0.50000000
   0.12500000  0.62500000  0.50000000
   0.12500000  0.87500000  0.50000000
   0.37500000  0.12500000  0.50000000
   0.37500000  0.37500000  0.50000000
   0.37500000  0.62500000  0.50000000
   0.37500000  0.87500000  0.50000000
   0.62500000  0.12500000  0.50000000
   0.62500000  0.37500000  0.50000000
   0.62500000  0.62500000  0.50000000
   0.62500000  0.87500000  0.50000000
   0.87500000  0.12500000  0.50000000
   0.87500000  0.37500000  0.50000000
   0.87500000  0.62500000  0.50000000
   0.87500000  0.87500000  0.50000000
   0.00000000  0.00000000  0.34576607
   0.00000000  0.25000000  0.34576607
   0.00000000  0.50000000  0.34576607
   0.00000000  0.75000000  0.34576607
   0.25000000  0.00000000  0.34576607
   0.25000000  0.25000000  0.34576607
   0.25000000  0.50000000  0.34576607
   0.25000000  0.75000000  0.34576607
   0.50000000  0.00000000  0.34576607
   0.50000000  0.25000000  0.34576607
   0.50000000  0.50000000  0.34576607
   0.50000000  0.75000000  0.34576607
   0.75000000  0.00000000  0.34576607
   0.75000000  0.25000000  0.34576607
   0.75000000  0.50000000  0.34576607
   0.75000000  0.75000000  0.34576607
   0.00000000  0.00000000  0.65423393
   0.00000000  0.25000000  0.65423393
   0.00000000  0.50000000  0.65423393
   0.00000000  0.75000000  0.65423393
   0.25000000  0.00000000  0.65423393
   0.25000000  0.25000000  0.65423393
   0.25000000  0.50000000  0.65423393
   0.25000000  0.75000000  0.65423393
   0.50000000  0.00000000  0.65423393
   0.50000000  0.25000000  0.65423393
   0.50000000  0.50000000  0.65423393
   0.50000000  0.75000000  0.65423393
   0.75000000  0.00000000  0.65423393
   0.75000000  0.25000000  0.65423393
   0.75000000  0.50000000  0.65423393
   0.75000000  0.75000000  0.65423393
   0.12500000  0.12500000  0.84576607
   0.12500000  0.37500000  0.84576607
   0.12500000  0.62500000  0.84576607
   0.12500000  0.87500000  0.84576607
   0.37500000  0.12500000  0.84576607
   0.37500000  0.37500000  0.84576607
   0.37500000  0.62500000  0.84576607
   0.37500000  0.87500000  0.84576607
   0.62500000  0.12500000  0.84576607
   0.62500000  0.37500000  0.84576607
   0.62500000  0.62500000  0.84576607
   0.62500000  0.87500000  0.84576607
   0.87500000  0.12500000  0.84576607
   0.87500000  0.37500000  0.84576607
   0.87500000  0.62500000  0.84576607
   0.87500000  0.87500000  0.84576607
   0.12500000  0.12500000  0.15423392
   0.12500000  0.37500000  0.15423392
   0.12500000  0.62500000  0.15423392
   0.12500000  0.87500000  0.15423392
   0.37500000  0.12500000  0.15423392
   0.37500000  0.37500000  0.15423392
   0.37500000  0.62500000  0.15423392
   0.37500000  0.87500000  0.15423392
   0.62500000  0.12500000  0.15423392
   0.62500000  0.37500000  0.15423392
   0.62500000  0.62500000  0.15423392
   0.62500000  0.87500000  0.15423392
   0.87500000  0.12500000  0.15423392
   0.87500000  0.37500000  0.15423392
   0.87500000  0.62500000  0.15423392
   0.87500000  0.87500000  0.15423392
 
 position of ions in cartesian coordinates  (Angst):
   0.00000000  0.00000000  0.00000000
   0.00000000  3.22807598  0.00000000
   0.00000000  6.45615196  0.00000000
   0.00000000  9.68422794  0.00000000
   3.22807598  0.00000000  0.00000000
   3.22807598  3.22807598  0.00000000
   3.22807598  6.45615196  0.00000000
   3.22807598  9.68422794  0.00000000
   6.45615196  0.00000000  0.00000000
   6.45615196  3.22807598  0.00000000
   6.45615196  6.45615196  0.00000000
   6.45615196  9.68422794  0.00000000
   9.68422794  0.00000000  0.00000000
   9.68422794  3.22807598  0.00000000
   9.68422794  6.45615196  0.00000000
   9.68422794  9.68422794  0.00000000
   1.61403799  1.61403799  5.59275675
   1.61403799  4.84211397  5.59275675
   1.61403799  8.07018995  5.59275675
   1.61403799 11.29826593  5.59275675
   4.84211397  1.61403799  5.59275675
   4.84211397  4.84211397  5.59275675
   4.84211397  8.07018995  5.59275675
   4.84211397 11.29826593  5.59275675
   8.07018995  1.61403799  5.59275675
   8.07018995  4.84211397  5.59275675
   8.07018995  8.07018995  5.59275675
   8.07018995 11.29826593  5.59275675
  11.29826593  1.61403799  5.59275675
  11.29826593  4.84211397  5.59275675
  11.29826593  8.07018995  5.59275675
  11.29826593 11.29826593  5.59275675
   0.00000000  0.00000000  3.86757102
   0.00000000  3.22807598  3.86757102
   0.00000000  6.45615196  3.86757102
   0.00000000  9.68422794  3.86757102
   3.22807598  0.00000000  3.86757102
   3.22807598  3.22807598  3.86757102
   3.22807598  6.45615196  3.86757102
   3.22807598  9.68422794  3.86757102
   6.45615196  0.00000000  3.86757102
   6.45615196  3.22807598  3.86757102
   6.45615196  6.45615196  3.86757102
   6.45615196  9.68422794  3.86757102
   9.68422794  0.00000000  3.86757102
   9.68422794  3.22807598  3.86757102
   9.68422794  6.45615196  3.86757102
   9.68422794  9.68422794  3.86757102
   0.00000000  0.00000000  7.31794248
   0.00000000  3.22807598  7.31794248
   0.00000000  6.45615196  7.31794248
   0.00000000  9.68422794  7.31794248
   3.22807598  0.00000000  7.31794248
   3.22807598  3.22807598  7.31794248
   3.22807598  6.45615196  7.31794248
   3.22807598  9.68422794  7.31794248
   6.45615196  0.00000000  7.31794248
   6.45615196  3.22807598  7.31794248
   6.45615196  6.45615196  7.31794248
   6.45615196  9.68422794  7.31794248
   9.68422794  0.00000000  7.31794248
   9.68422794  3.22807598  7.31794248
   9.68422794  6.45615196  7.31794248
   9.68422794  9.68422794  7.31794248
   1.61403799  1.61403799  9.46032777
   1.61403799  4.84211397  9.46032777
   1.61403799  8.07018995  9.46032777
   1.61403799 11.29826593  9.46032777
   4.84211397  1.61403799  9.46032777
   4.84211397  4.84211397  9.46032777
   4.84211397  8.07018995  9.46032777
   4.84211397 11.29826593  9.46032777
   8.07018995  1.61403799  9.46032777
   8.07018995  4.84211397  9.46032777
   8.07018995  8.07018995  9.46032777
   8.07018995 11.29826593  9.46032777
  11.29826593  1.61403799  9.46032777
  11.29826593  4.84211397  9.46032777
  11.29826593  8.07018995  9.46032777
  11.29826593 11.29826593  9.46032777
   1.61403799  1.61403799  1.72518557
   1.61403799  4.84211397  1.72518557
   1.61403799  8.07018995  1.72518557
   1.61403799 11.29826593  1.72518557
   4.84211397  1.61403799  1.72518557
   4.84211397  4.84211397  1.72518557
   4.84211397  8.07018995  1.72518557
   4.84211397 11.29826593  1.72518557
   8.07018995  1.61403799  1.72518557
   8.07018995  4.84211397  1.72518557
   8.07018995  8.07018995  1.72518557
   8.07018995 11.29826593  1.72518557
  11.29826593  1.61403799  1.72518557
  11.29826593  4.84211397  1.72518557
  11.29826593  8.07018995  1.72518557
  11.29826593 11.29826593  1.72518557
 


--------------------------------------------------------------------------------------------------------


 k-point     1 :   0.0000 0.0000 0.0000  plane waves:   47421
 k-point     2 :   0.3333 0.0000 0.0000  plane waves:   47283
 k-point     3 :  -0.3333 0.0000 0.0000  plane waves:   47283
 k-point     4 :   0.0000 0.3333 0.0000  plane waves:   47283
 k-point     5 :   0.3333 0.3333 0.0000  plane waves:   47409
 k-point     6 :  -0.3333 0.3333 0.0000  plane waves:   47409
 k-point     7 :   0.0000-0.3333 0.0000  plane waves:   47283
 k-point     8 :   0.3333-0.3333 0.0000  plane waves:   47409
 k-point     9 :  -0.3333-0.3333 0.0000  plane waves:   47409
 k-point    10 :   0.0000 0.0000 0.3333  plane waves:   47401
 k-point    11 :   0.3333 0.0000 0.3333  plane waves:   47356
 k-point    12 :  -0.3333 0.0000 0.3333  plane waves:   47356
 k-point    13 :   0.0000 0.3333 0.3333  plane waves:   47356
 k-point    14 :   0.3333 0.3333 0.3333  plane waves:   47319
 k-point    15 :  -0.3333 0.3333 0.3333  plane waves:   47319
 k-point    16 :   0.0000-0.3333 0.3333  plane waves:   47356
 k-point    17 :   0.3333-0.3333 0.3333  plane waves:   47319
 k-point    18 :  -0.3333-0.3333 0.3333  plane waves:   47319
 k-point    19 :   0.0000 0.0000-0.3333  plane waves:   47401
 k-point    20 :   0.3333 0.0000-0.3333  plane waves:   47356
 k-point    21 :  -0.3333 0.0000-0.3333  plane waves:   47356
 k-point    22 :   0.0000 0.3333-0.3333  plane waves:   47356
 k-point    23 :   0.3333 0.3333-0.3333  plane waves:   47319
 k-point    24 :  -0.3333 0.3333-0.3333  plane waves:   47319
 k-point    25 :   0.0000-0.3333-0.3333  plane waves:   47356
 k-point    26 :   0.3333-0.3333-0.3333  plane waves:   47319
 k-point    27 :  -0.3333-0.3333-0.3333  plane waves:   47319

 maximum and minimum number of plane-waves per node :      5987     5854

 maximum number of plane-waves:     47421
 maximum index in each direction: 
   IXMAX=   23   IYMAX=   23   IZMAX=   20
   IXMIN=  -23   IYMIN=  -23   IZMIN=  -20


 real space projection operators:
  total allocation   :      73471.50 KBytes
  max/ min on nodes  :       9312.75       9128.25


 parallel 3D FFT for wavefunctions:
    minimum data exchange during FFTs selected (reduces bandwidth)
 parallel 3D FFT for charge:
    minimum data exchange during FFTs selected (reduces bandwidth)


 total amount of memory used by VASP MPI-rank0   619234. kBytes
=======================================================================

   base                                    :      30000. kBytes
   nonlr-proj                              :      21408. kBytes
   fftplans                                :       6172. kBytes
   grid                                    :      15593. kBytes
   one-center                              :        373. kBytes
   wavefun                                 :     545688. kBytes
 
     INWAV:  cpu time      0.0000: real time      0.0000
 Broyden mixing: mesh for mixing (old mesh)
   NGX = 47   NGY = 47   NGZ = 41
  (NGX  =192   NGY  =192   NGZ  =168)
  gives a total of  90569 points

 initial charge density was supplied:
 charge density of overlapping atoms calculated
 number of electron    1312.0000000 magnetization      57.6000000
 keeping initial charge density in first step


--------------------------------------------------------------------------------------------------------


 Maximum index for non-local projection operator          785
 Maximum index for augmentation-charges          794 (set IRDMAX)


--------------------------------------------------------------------------------------------------------


 First call to EWALD:  gamma=   0.144
 Maximum number of real-space cells   3x   3x   3
 Maximum number of reciprocal cells   3x   3x   3

    FEWALD:  cpu time      0.0071: real time      0.0075


--------------------------------------- Ionic step        1  -------------------------------------------




--------------------------------------- Iteration      1(   1)  ---------------------------------------


    POTLOK:  cpu time      0.1195: real time      0.1218
    SETDIJ:  cpu time      0.0141: real time      0.0143
     EDDAV:  cpu time    145.6475: real time    146.5393
       DOS:  cpu time      0.0074: real time      0.0078
    --------------------------------------------
      LOOP:  cpu time    145.7889: real time    146.6837

 eigenvalue-minimisations  : 98496
 total energy-change (2. order) : 0.1784872E+05  (-0.7327877E+05)
 number of electron    1312.0000000 magnetization      57.6000000
 augmentation part     1312.0000000 magnetization      57.6000000

 Free energy of the ion-electron system (eV)
  ---------------------------------------------------
  alpha Z        PSCENC =      7381.47672808
  Ewald energy   TEWEN  =   -138595.37090884
  -Hartree energ DENC   =    -68485.77670150
  -exchange      EXHF   =         0.00000000
  -V(xc)+E(xc)   XCENC  =      6663.01570418
  PAW double counting   =    175613.14204459  -179181.57338414
  entropy T*S    EENTRO =         0.00028751
  eigenvalues    EBANDS =       422.16230486
  atomic energy  EATOM  =    214031.63917223
  Solvation  Ediel_sol  =         0.00000000
  ---------------------------------------------------
  free energy    TOTEN  =     17848.71524696 eV

  energy without entropy =    17848.71495945  energy(sigma->0) =    17848.71515112


--------------------------------------------------------------------------------------------------------




--------------------------------------- Iteration      1(   2)  ---------------------------------------


     EDDAV:  cpu time    133.4974: real time    134.3596
       DOS:  cpu time      0.0075: real time      0.0075
    --------------------------------------------
      LOOP:  cpu time    133.5050: real time    134.3977

 eigenvalue-minimisations  : 88560
 total energy-change (2. order) :-0.1676577E+05  (-0.1629395E+05)
 number of electron    1312.0000000 magnetization      57.6000000
 augmentation part     1312.0000000 magnetization      57.6000000

 Free energy of the ion-electron system (eV)
  ---------------------------------------------------
  alpha Z        PSCENC =      7381.47672808
  Ewald energy   TEWEN  =   -138595.37090884
  -Hartree energ DENC   =    -68485.77670150
  -exchange      EXHF   =         0.00000000
  -V(xc)+E(xc)   XCENC  =      6663.01570418
  PAW double counting   =    175613.14204459  -179181.57338414
  entropy T*S    EENTRO =        -0.00042546
  eigenvalues    EBANDS =    -16343.60573043
  atomic energy  EATOM  =    214031.63917223
  Solvation  Ediel_sol  =         0.00000000
  ---------------------------------------------------
  free energy    TOTEN  =      1082.94649869 eV

  energy without entropy =     1082.94692415  energy(sigma->0) =     1082.94664051


--------------------------------------------------------------------------------------------------------




--------------------------------------- Iteration      1(   3)  ---------------------------------------


     EDDAV:  cpu time    158.9439: real time    159.9866
       DOS:  cpu time      0.0068: real time      0.0068
    --------------------------------------------
      LOOP:  cpu time    158.9506: real time    159.9627

 eigenvalue-minimisations  :110408
 total energy-change (2. order) :-0.1583687E+04  (-0.1412710E+04)
 number of electron    1312.0000000 magnetization      57.6000000
 augmentation part     1312.0000000 magnetization      57.6000000

 Free energy of the ion-electron system (eV)
  ---------------------------------------------------
  alpha Z        PSCENC =      7381.47672808
  Ewald energy   TEWEN  =   -138595.37090884
  -Hartree energ DENC   =    -68485.77670150
  -exchange      EXHF   =         0.00000000
  -V(xc)+E(xc)   XCENC  =      6663.01570418
  PAW double counting   =    175613.14204459  -179181.57338414
  entropy T*S    EENTRO =        -0.00992931
  eigenvalues    EBANDS =    -17927.28325190
  atomic energy  EATOM  =    214031.63917223
  Solvation  Ediel_sol  =         0.00000000
  ---------------------------------------------------
  free energy    TOTEN  =      -500.74052662 eV

  energy without entropy =     -500.73059731  energy(sigma->0) =     -500.73721685


--------------------------------------------------------------------------------------------------------




--------------------------------------- Iteration      1(   4)  ---------------------------------------


     EDDAV:  cpu time    190.6831: real time    191.8884
       DOS:  cpu time      0.0068: real time      0.0069
    --------------------------------------------
      LOOP:  cpu time    190.6900: real time    191.8953

 eigenvalue-minimisations  :137168
 total energy-change (2. order) :-0.2330274E+03  (-0.2269958E+03)
 number of electron    1312.0000000 magnetization      57.6000000
 augmentation part     1312.0000000 magnetization      57.6000000

 Free energy of the ion-electron system (eV)
  ---------------------------------------------------
  alpha Z        PSCENC =      7381.47672808
  Ewald energy   TEWEN  =   -138595.37090884
  -Hartree energ DENC   =    -68485.77670150
  -exchange      EXHF   =         0.00000000
  -V(xc)+E(xc)   XCENC  =      6663.01570418
  PAW double counting   =    175613.14204459  -179181.57338414
  entropy T*S    EENTRO =         0.02478869
  eigenvalues    EBANDS =    -18160.34536269
  atomic energy  EATOM  =    214031.63917223
  Solvation  Ediel_sol  =         0.00000000
  ---------------------------------------------------
  free energy    TOTEN  =      -733.76791942 eV

  energy without entropy =     -733.79270811  energy(sigma->0) =     -733.77618231


--------------------------------------------------------------------------------------------------------




--------------------------------------- Iteration      1(   5)  ---------------------------------------


     EDDAV:  cpu time    205.9581: real time    207.5291
       DOS:  cpu time      0.0070: real time      0.0070
    CHARGE:  cpu time      3.7560: real time      3.7839
    MIXING:  cpu time      0.0146: real time      0.0151
    --------------------------------------------
      LOOP:  cpu time    209.7353: real time    211.3347

 eigenvalue-minimisations  :150776
 total energy-change (2. order) :-0.2115908E+02  (-0.2110272E+02)
 number of electron    1312.0001631 magnetization      43.7022822
 augmentation part      325.9259577 magnetization      38.6991875

 Broyden mixing:
  rms(total) = 0.13259E+02    rms(broyden)= 0.13258E+02
  rms(prec ) = 0.14680E+02
  weight for this iteration     100.00

 Free energy of the ion-electron system (eV)
  ---------------------------------------------------
  alpha Z        PSCENC =      7381.47672808
  Ewald energy   TEWEN  =   -138595.37090884
  -Hartree energ DENC   =    -68485.77670150
  -exchange      EXHF   =         0.00000000
  -V(xc)+E(xc)   XCENC  =      6663.01570418
  PAW double counting   =    175613.14204459  -179181.57338414
  entropy T*S    EENTRO =         0.02238444
  eigenvalues    EBANDS =    -18181.50203918
  atomic energy  EATOM  =    214031.63917223
  Solvation  Ediel_sol  =         0.00000000
  ---------------------------------------------------
  free energy    TOTEN  =      -754.92700015 eV

  energy without entropy =     -754.94938459  energy(sigma->0) =     -754.93446163


--------------------------------------------------------------------------------------------------------




--------------------------------------- Iteration      1(   6)  ---------------------------------------


    POTLOK:  cpu time      0.1130: real time      0.1138
    SETDIJ:  cpu time      0.0096: real time      0.0096
     EDDAV:  cpu time    156.5498: real time    157.7668
       DOS:  cpu time      0.0069: real time      0.0069
    CHARGE:  cpu time      3.6272: real time      3.6556
    MIXING:  cpu time      0.0079: real time      0.0082
    --------------------------------------------
      LOOP:  cpu time    160.3144: real time    161.5610

 eigenvalue-minimisations  :108568
 total energy-change (2. order) :-0.1288958E+03  (-0.1977125E+03)
 number of electron    1312.0002067 magnetization      40.9107974
 augmentation part      387.9510362 magnetization      23.2574600

 Broyden mixing:
  rms(total) = 0.21495E+02    rms(broyden)= 0.21494E+02
  rms(prec ) = 0.22383E+02
  weight for this iteration     100.00

 eigenvalues of (default mixing * dielectric matrix)
  average eigenvalue GAMMA=   0.3146
  0.3146

 Free energy of the ion-electron system (eV)
  ---------------------------------------------------
  alpha Z        PSCENC =      7381.47672808
  Ewald energy   TEWEN  =   -138595.37090884
  -Hartree energ DENC   =    -63772.92056565
  -exchange      EXHF   =         0.00000000
  -V(xc)+E(xc)   XCENC  =      6504.62127928
  PAW double counting   =    186451.11267127  -189730.50625536
  entropy T*S    EENTRO =        -0.13267246
  eigenvalues    EBANDS =    -23153.74223748
  atomic energy  EATOM  =    214031.63917223
  Solvation  Ediel_sol  =         0.00000000
  ---------------------------------------------------
  free energy    TOTEN  =      -883.82278893 eV

  energy without entropy =     -883.69011647  energy(sigma->0) =     -883.77856478


--------------------------------------------------------------------------------------------------------




--------------------------------------- Iteration      1(   7)  ---------------------------------------


    POTLOK:  cpu time      0.1078: real time      0.1090
    SETDIJ:  cpu time      0.0089: real time      0.0090
     EDDAV:  cpu time    157.1180: real time    158.0769
       DOS:  cpu time      0.0071: real time      0.0072
    CHARGE:  cpu time      3.7055: real time      3.7318
    MIXING:  cpu time      0.0087: real time      0.0089
    --------------------------------------------
      LOOP:  cpu time    160.9561: real time    161.9426

 eigenvalue-minimisations  :108584
 total energy-change (2. order) : 0.1460943E+03  (-0.4340455E+02)
 number of electron    1312.0002003 magnetization      32.9459575
 augmentation part      377.4782680 magnetization      21.9641804

 Broyden mixing:
  rms(total) = 0.79083E+01    rms(broyden)= 0.79080E+01
  rms(prec ) = 0.87936E+01
  weight for this iteration     100.00

 eigenvalues of (default mixing * dielectric matrix)
  average eigenvalue GAMMA=   0.6404
  0.6404  0.6404

 Free energy of the ion-electron system (eV)
  ---------------------------------------------------
  alpha Z        PSCENC =      7381.47672808
  Ewald energy   TEWEN  =   -138595.37090884
  -Hartree energ DENC   =    -65068.37333908
  -exchange      EXHF   =         0.00000000
  -V(xc)+E(xc)   XCENC  =      6541.01683381
  PAW double counting   =    193282.96275689  -196819.03280029
  entropy T*S    EENTRO =         0.07948728
  eigenvalues    EBANDS =    -21492.12639290
  atomic energy  EATOM  =    214031.63917223
  Solvation  Ediel_sol  =         0.00000000
  ---------------------------------------------------
  free energy    TOTEN  =      -737.72846282 eV

  energy without entropy =     -737.80795011  energy(sigma->0) =     -737.75495858


--------------------------------------------------------------------------------------------------------




--------------------------------------- Iteration      1(   8)  ---------------------------------------


    POTLOK:  cpu time      0.1089: real time      0.1099
    SETDIJ:  cpu time      0.0091: real time      0.0091
     EDDAV:  cpu time    159.3247: real time    160.3760
       DOS:  cpu time      0.0081: real time      0.0081
    CHARGE:  cpu time      3.6378: real time      3.6662
    MIXING:  cpu time      0.0082: real time      0.0082
    --------------------------------------------
      LOOP:  cpu time    163.0967: real time    164.1776

 eigenvalue-minimisations  :110880
 total energy-change (2. order) : 0.6017362E+02  (-0.3634780E+02)
 number of electron    1312.0001852 magnetization      22.7073739
 augmentation part      354.5151020 magnetization      14.4473122

 Broyden mixing:
  rms(total) = 0.29871E+01    rms(broyden)= 0.29856E+01
  rms(prec ) = 0.32794E+01
  weight for this iteration     100.00

 eigenvalues of (default mixing * dielectric matrix)
  average eigenvalue GAMMA=   0.8436
  1.4603  0.5353  0.5353

 Free energy of the ion-electron system (eV)
  ---------------------------------------------------
  alpha Z        PSCENC =      7381.47672808
  Ewald energy   TEWEN  =   -138595.37090884
  -Hartree energ DENC   =    -66461.98795791
  -exchange      EXHF   =         0.00000000
  -V(xc)+E(xc)   XCENC  =      6574.26016115
  PAW double counting   =    201166.46754377  -204932.93182172
  entropy T*S    EENTRO =         0.10066013
  eigenvalues    EBANDS =    -19841.20841676
  atomic energy  EATOM  =    214031.63917223
  Solvation  Ediel_sol  =         0.00000000
  ---------------------------------------------------
  free energy    TOTEN  =      -677.55483988 eV

  energy without entropy =     -677.65550001  energy(sigma->0) =     -677.58839326


--------------------------------------------------------------------------------------------------------




--------------------------------------- Iteration      1(   9)  ---------------------------------------


    POTLOK:  cpu time      0.1081: real time      0.1090
    SETDIJ:  cpu time      0.0093: real time      0.0094
     EDDAV:  cpu time    164.2682: real time    165.2703
       DOS:  cpu time      0.0068: real time      0.0068
    CHARGE:  cpu time      3.6915: real time      3.7200
    MIXING:  cpu time      0.0088: real time      0.0089
    --------------------------------------------
      LOOP:  cpu time    168.0927: real time    169.1244

 eigenvalue-minimisations  :114824
 total energy-change (2. order) : 0.1023298E+00  (-0.5361983E+01)
 number of electron    1312.0001908 magnetization      20.1118924
 augmentation part      356.4812691 magnetization      13.5576203

 Broyden mixing:
  rms(total) = 0.12027E+01    rms(broyden)= 0.12025E+01
  rms(prec ) = 0.12354E+01
  weight for this iteration     100.00

 eigenvalues of (default mixing * dielectric matrix)
  average eigenvalue GAMMA=   0.7667
  1.4017  0.5457  0.5457  0.5736

 Free energy of the ion-electron system (eV)
  ---------------------------------------------------
  alpha Z        PSCENC =      7381.47672808
  Ewald energy   TEWEN  =   -138595.37090884
  -Hartree energ DENC   =    -65915.45372880
  -exchange      EXHF   =         0.00000000
  -V(xc)+E(xc)   XCENC  =      6553.40705960
  PAW double counting   =    206128.44098956  -209879.77174900
  entropy T*S    EENTRO =         0.10934384
  eigenvalues    EBANDS =    -20381.92941671
  atomic energy  EATOM  =    214031.63917223
  Solvation  Ediel_sol  =         0.00000000
  ---------------------------------------------------
  free energy    TOTEN  =      -677.45251005 eV

  energy without entropy =     -677.56185388  energy(sigma->0) =     -677.48895799


--------------------------------------------------------------------------------------------------------




--------------------------------------- Iteration      1(  10)  ---------------------------------------


    POTLOK:  cpu time      0.1086: real time      0.1094
    SETDIJ:  cpu time      0.0433: real time      0.0434
     EDDAV:  cpu time    170.1890: real time    171.2294
       DOS:  cpu time      0.0071: real time      0.0071
    CHARGE:  cpu time      3.6533: real time      3.6821
    MIXING:  cpu time      0.0225: real time      0.0226
    --------------------------------------------
      LOOP:  cpu time    174.0238: real time    175.0940

 eigenvalue-minimisations  :120400
 total energy-change (2. order) :-0.7625893E+00  (-0.3668138E+00)
 number of electron    1312.0001912 magnetization      10.6453924
 augmentation part      356.9974801 magnetization       4.8920025

 Broyden mixing:
  rms(total) = 0.82775E+00    rms(broyden)= 0.82771E+00
  rms(prec ) = 0.85886E+00
  weight for this iteration     100.00

 eigenvalues of (default mixing * dielectric matrix)
  average eigenvalue GAMMA=   0.9400
  1.4840  1.4840  0.5303  0.5303  0.6716

 Free energy of the ion-electron system (eV)
[...]
   0.159E-02 -.827E-03 -.144E-04   -.902E-13 -.153E-12 -.508E-04   0.111E-04 -.836E-04 -.523E-06   -.157E-02 0.913E-03 0.678E-04
   0.177E-02 -.876E-03 0.813E-05   -.113E-12 -.743E-13 -.508E-04   0.194E-04 0.215E-04 0.130E-05   -.176E-02 0.868E-03 0.425E-04
   0.196E-02 0.799E-03 -.296E-05   -.114E-12 -.508E-13 -.508E-04   0.206E-04 0.958E-04 0.294E-06   -.195E-02 -.901E-03 0.538E-04
   -.652E-03 0.590E-03 -.224E-05   0.440E-14 -.214E-12 -.508E-04   -.291E-04 -.267E-04 0.165E-06   0.668E-03 -.579E-03 0.536E-04
   -.205E-03 -.295E-03 -.508E-05   0.120E-12 -.145E-12 -.508E-04   -.196E-04 -.472E-04 -.160E-05   0.207E-03 0.340E-03 0.596E-04
   0.462E-03 -.581E-03 0.185E-04   0.924E-13 -.734E-13 -.508E-04   0.607E-04 0.604E-05 -.151E-05   -.551E-03 0.601E-03 0.348E-04
   -.262E-05 0.282E-03 0.231E-04   0.120E-12 -.491E-13 -.508E-04   -.285E-05 0.666E-04 -.740E-07   -.148E-04 -.353E-03 0.276E-04
   -.127E-02 -.567E-05 0.266E+03   -.809E-14 0.143E-13 -.268E+03   -.591E-05 0.176E-05 0.177E+01   0.128E-02 0.881E-05 0.200E-02
   -.117E-02 0.463E-03 0.266E+03   0.570E-13 0.812E-13 -.268E+03   -.708E-05 0.355E-05 0.177E+01   0.119E-02 -.451E-03 0.183E-02
   -.978E-03 0.156E-05 0.266E+03   0.125E-12 0.121E-12 -.268E+03   -.560E-05 -.155E-05 0.177E+01   0.988E-03 -.150E-04 0.217E-02
   -.107E-02 -.459E-03 0.266E+03   0.135E-12 0.154E-12 -.268E+03   -.394E-05 -.381E-05 0.177E+01   0.107E-02 0.458E-03 0.235E-02
   -.823E-03 0.355E-03 0.266E+03   0.434E-13 0.207E-13 -.268E+03   -.358E-05 -.463E-06 0.177E+01   0.831E-03 -.352E-03 0.186E-02
   -.464E-03 0.556E-03 0.266E+03   0.141E-13 0.100E-12 -.268E+03   -.335E-05 0.444E-05 0.177E+01   0.454E-03 -.551E-03 0.204E-02
   -.941E-03 -.369E-03 0.266E+03   0.158E-12 0.108E-12 -.268E+03   -.365E-05 0.579E-06 0.177E+01   0.944E-03 0.362E-03 0.192E-02
   -.128E-02 -.541E-03 0.266E+03   0.519E-13 0.143E-12 -.268E+03   -.218E-05 -.408E-05 0.177E+01   0.130E-02 0.541E-03 0.177E-02
   0.129E-02 0.761E-03 0.266E+03   0.912E-13 0.186E-13 -.268E+03   0.639E-05 -.203E-05 0.177E+01   -.131E-02 -.756E-03 0.174E-02
   0.117E-02 0.373E-03 0.266E+03   0.797E-13 0.472E-13 -.268E+03   0.649E-05 0.429E-05 0.177E+01   -.118E-02 -.374E-03 0.204E-02
   0.102E-02 -.806E-03 0.266E+03   0.144E-12 0.681E-13 -.268E+03   0.536E-05 0.222E-06 0.177E+01   -.103E-02 0.818E-03 0.218E-02
   0.113E-02 -.327E-03 0.266E+03   0.769E-13 0.141E-12 -.268E+03   0.500E-05 -.208E-05 0.177E+01   -.115E-02 0.310E-03 0.189E-02
   0.803E-03 0.412E-03 0.266E+03   0.234E-12 0.465E-13 -.268E+03   0.336E-05 0.121E-05 0.177E+01   -.799E-03 -.408E-03 0.180E-02
   0.464E-03 0.289E-03 0.266E+03   0.238E-12 0.599E-13 -.268E+03   0.448E-05 0.453E-05 0.177E+01   -.465E-03 -.284E-03 0.179E-02
   0.900E-03 -.448E-03 0.266E+03   0.167E-12 0.808E-13 -.268E+03   0.361E-05 -.235E-05 0.177E+01   -.905E-03 0.454E-03 0.236E-02
   0.122E-02 -.253E-03 0.266E+03   0.235E-12 0.137E-12 -.268E+03   0.522E-06 -.218E-05 0.177E+01   -.122E-02 0.237E-03 0.242E-02
   -.127E-02 -.193E-04 -.266E+03   -.469E-13 0.313E-13 0.268E+03   -.612E-05 0.190E-05 -.177E+01   0.128E-02 0.224E-04 -.198E-02
   -.116E-02 0.462E-03 -.266E+03   -.282E-13 0.105E-12 0.268E+03   -.716E-05 0.356E-05 -.177E+01   0.118E-02 -.450E-03 -.179E-02
   -.974E-03 0.109E-04 -.266E+03   -.578E-13 0.114E-12 0.268E+03   -.546E-05 -.168E-05 -.177E+01   0.984E-03 -.244E-04 -.214E-02
   -.108E-02 -.453E-03 -.266E+03   0.285E-13 0.192E-12 0.268E+03   -.382E-05 -.387E-05 -.177E+01   0.108E-02 0.453E-03 -.234E-02
   -.836E-03 0.355E-03 -.266E+03   -.153E-13 0.663E-13 0.268E+03   -.328E-05 -.660E-06 -.177E+01   0.844E-03 -.352E-03 -.182E-02
   -.468E-03 0.566E-03 -.266E+03   -.669E-13 0.101E-12 0.268E+03   -.336E-05 0.416E-05 -.177E+01   0.458E-03 -.562E-03 -.201E-02
   -.937E-03 -.374E-03 -.266E+03   -.153E-13 0.135E-12 0.268E+03   -.356E-05 0.601E-06 -.177E+01   0.939E-03 0.368E-03 -.190E-02
   -.129E-02 -.548E-03 -.266E+03   -.492E-13 0.168E-12 0.268E+03   -.206E-05 -.390E-05 -.177E+01   0.131E-02 0.548E-03 -.174E-02
   0.128E-02 0.751E-03 -.266E+03   0.502E-13 0.578E-13 0.268E+03   0.662E-05 -.182E-05 -.177E+01   -.130E-02 -.746E-03 -.168E-02
   0.115E-02 0.389E-03 -.266E+03   -.207E-13 0.927E-13 0.268E+03   0.673E-05 0.425E-05 -.177E+01   -.116E-02 -.389E-03 -.198E-02
   0.100E-02 -.800E-03 -.266E+03   -.209E-13 0.101E-12 0.268E+03   0.544E-05 0.299E-06 -.177E+01   -.101E-02 0.812E-03 -.214E-02
   0.113E-02 -.340E-03 -.266E+03   -.387E-13 0.160E-12 0.268E+03   0.492E-05 -.213E-05 -.177E+01   -.116E-02 0.324E-03 -.185E-02
   0.827E-03 0.390E-03 -.266E+03   0.928E-13 0.864E-13 0.268E+03   0.302E-05 0.125E-05 -.177E+01   -.822E-03 -.386E-03 -.175E-02
   0.480E-03 0.292E-03 -.266E+03   0.122E-12 0.948E-13 0.268E+03   0.454E-05 0.436E-05 -.177E+01   -.481E-03 -.287E-03 -.174E-02
   0.908E-03 -.429E-03 -.266E+03   0.212E-13 0.112E-12 0.268E+03   0.337E-05 -.252E-05 -.177E+01   -.913E-03 0.435E-03 -.232E-02
   0.124E-02 -.253E-03 -.266E+03   0.200E-13 0.158E-12 0.268E+03   0.800E-07 -.224E-05 -.177E+01   -.124E-02 0.237E-03 -.239E-02
   -.117E-02 0.467E-03 0.266E+03   -.959E-13 -.238E-13 -.268E+03   -.454E-05 0.347E-05 0.177E+01   0.117E-02 -.453E-03 0.172E-02
   -.111E-02 0.248E-03 0.266E+03   -.326E-13 0.275E-13 -.268E+03   -.358E-05 -.343E-05 0.177E+01   0.110E-02 -.234E-03 0.165E-02
   -.193E-02 -.408E-03 0.266E+03   0.191E-13 0.490E-13 -.268E+03   -.963E-06 -.207E-05 0.177E+01   0.195E-02 0.397E-03 0.167E-02
   -.199E-02 -.308E-03 0.266E+03   0.992E-14 0.756E-13 -.268E+03   -.153E-05 0.266E-05 0.177E+01   0.202E-02 0.290E-03 0.172E-02
   0.366E-03 0.107E-02 0.266E+03   0.134E-12 -.297E-13 -.268E+03   -.220E-05 0.131E-05 0.177E+01   -.372E-03 -.108E-02 0.178E-02
   0.367E-03 -.296E-03 0.266E+03   0.171E-12 0.267E-13 -.268E+03   -.216E-05 -.193E-06 0.177E+01   -.374E-03 0.326E-03 0.160E-02
   0.418E-04 -.102E-02 0.266E+03   0.233E-12 0.469E-13 -.268E+03   0.234E-06 -.127E-05 0.177E+01   -.511E-04 0.102E-02 0.188E-02
   0.511E-04 0.246E-03 0.266E+03   0.874E-13 0.697E-13 -.268E+03   0.141E-05 0.156E-05 0.177E+01   -.612E-04 -.267E-03 0.207E-02
   0.102E-02 0.806E-03 0.266E+03   0.158E-12 -.318E-13 -.268E+03   0.363E-05 -.331E-06 0.177E+01   -.993E-03 -.811E-03 0.192E-02
   0.994E-03 -.568E-04 0.266E+03   0.126E-12 0.240E-13 -.268E+03   0.379E-05 0.860E-06 0.177E+01   -.972E-03 0.841E-04 0.151E-02
   0.180E-02 -.770E-03 0.266E+03   0.435E-13 0.104E-13 -.268E+03   0.120E-05 -.436E-06 0.177E+01   -.179E-02 0.753E-03 0.133E-02
   0.181E-02 0.208E-04 0.266E+03   0.118E-12 0.663E-13 -.268E+03   0.965E-06 0.765E-06 0.177E+01   -.181E-02 -.271E-04 0.177E-02
   -.214E-03 0.219E-03 0.266E+03   0.205E-12 0.681E-14 -.268E+03   0.271E-05 0.353E-05 0.177E+01   0.201E-03 -.204E-03 0.186E-02
   -.255E-03 0.479E-03 0.266E+03   0.288E-12 0.611E-13 -.268E+03   0.197E-05 -.308E-05 0.177E+01   0.248E-03 -.467E-03 0.157E-02
   0.965E-04 -.173E-03 0.266E+03   0.273E-12 0.486E-13 -.268E+03   -.385E-06 -.267E-05 0.177E+01   -.116E-03 0.151E-03 0.110E-02
   0.126E-03 -.524E-03 0.266E+03   0.264E-12 0.370E-13 -.268E+03   -.849E-06 0.315E-05 0.177E+01   -.150E-03 0.519E-03 0.140E-02
   -.117E-02 0.467E-03 -.266E+03   -.251E-12 -.852E-13 0.268E+03   -.442E-05 0.345E-05 -.177E+01   0.116E-02 -.453E-03 -.175E-02
   -.112E-02 0.246E-03 -.266E+03   -.195E-12 -.422E-13 0.268E+03   -.317E-05 -.322E-05 -.177E+01   0.111E-02 -.232E-03 -.168E-02
   -.193E-02 -.409E-03 -.266E+03   -.165E-12 -.202E-13 0.268E+03   -.106E-05 -.234E-05 -.177E+01   0.195E-02 0.399E-03 -.170E-02
   -.198E-02 -.303E-03 -.266E+03   -.152E-12 -.228E-13 0.268E+03   -.183E-05 0.273E-05 -.177E+01   0.200E-02 0.286E-03 -.175E-02
   0.386E-03 0.106E-02 -.266E+03   -.121E-12 -.869E-13 0.268E+03   -.232E-05 0.140E-05 -.177E+01   -.392E-03 -.107E-02 -.183E-02
   0.382E-03 -.305E-03 -.266E+03   -.178E-12 -.441E-13 0.268E+03   -.248E-05 -.176E-06 -.177E+01   -.389E-03 0.336E-03 -.163E-02
   0.461E-04 -.102E-02 -.266E+03   -.128E-12 -.223E-13 0.268E+03   0.357E-06 -.160E-05 -.177E+01   -.554E-04 0.101E-02 -.191E-02
   0.617E-04 0.255E-03 -.266E+03   -.794E-13 0.899E-14 0.268E+03   0.120E-05 0.130E-05 -.177E+01   -.715E-04 -.275E-03 -.212E-02
   0.101E-02 0.810E-03 -.266E+03   -.983E-13 -.933E-13 0.268E+03   0.370E-05 -.389E-06 -.177E+01   -.987E-03 -.815E-03 -.199E-02
   0.100E-02 -.744E-04 -.266E+03   -.235E-13 -.526E-13 0.268E+03   0.371E-05 0.753E-06 -.177E+01   -.978E-03 0.102E-03 -.157E-02
   0.179E-02 -.776E-03 -.266E+03   -.407E-13 -.291E-13 0.268E+03   0.122E-05 -.520E-06 -.177E+01   -.178E-02 0.759E-03 -.137E-02
   0.180E-02 0.377E-04 -.266E+03   -.532E-13 0.309E-14 0.268E+03   0.116E-05 0.556E-06 -.177E+01   -.179E-02 -.442E-04 -.182E-02
   -.229E-03 0.234E-03 -.266E+03   0.461E-13 -.504E-13 0.268E+03   0.301E-05 0.331E-05 -.177E+01   0.216E-03 -.219E-03 -.190E-02
   -.268E-03 0.469E-03 -.266E+03   0.650E-13 -.768E-14 0.268E+03   0.195E-05 -.285E-05 -.177E+01   0.259E-03 -.457E-03 -.162E-02
   0.942E-04 -.188E-03 -.266E+03   -.965E-13 -.206E-13 0.268E+03   -.186E-06 -.248E-05 -.177E+01   -.114E-03 0.167E-03 -.112E-02
   0.120E-03 -.514E-03 -.266E+03   0.334E-13 0.120E-13 0.268E+03   -.321E-06 0.287E-05 -.177E+01   -.143E-03 0.510E-03 -.142E-02
 -----------------------------------------------------------------------------------------------
   -.409E-05 -.515E-04 -.356E-04   0.816E-12 -.951E-12 0.239E-11   0.294E-04 -.279E-04 0.136E-04   -.111E-04 0.449E-04 0.254E-04
 
 
 POSITION                                       TOTAL-FORCE (eV/Angst)
 -----------------------------------------------------------------------------------
      0.00000      0.00000      0.00000         0.000018      0.000021     -0.000000
      0.00000      3.22808      0.00000         0.000027     -0.000061     -0.000001
      0.00000      6.45615      0.00000         0.000033     -0.000018     -0.000001
      0.00000      9.68423      0.00000         0.000029      0.000043     -0.000001
      3.22808      0.00000      0.00000         0.000009      0.000007     -0.000002
      3.22808      3.22808      0.00000        -0.000000     -0.000043     -0.000001
      3.22808      6.45615      0.00000         0.000005     -0.000000      0.000000
      3.22808      9.68423      0.00000         0.000009      0.000037     -0.000000
      6.45615      0.00000      0.00000        -0.000017      0.000004     -0.000003
      6.45615      3.22808      0.00000        -0.000024     -0.000062     -0.000003
      6.45615      6.45615      0.00000        -0.000030     -0.000003     -0.000000
      6.45615      9.68423      0.00000        -0.000023      0.000042     -0.000002
      9.68423      0.00000      0.00000        -0.000012      0.000021     -0.000001
      9.68423      3.22808      0.00000         0.000002     -0.000069     -0.000003
      9.68423      6.45615      0.00000        -0.000009     -0.000011     -0.000001
      9.68423      9.68423      0.00000        -0.000012      0.000054     -0.000000
      1.61404      1.61404      5.59276        -0.000023     -0.000021      0.000001
      1.61404      4.84211      5.59276        -0.000022     -0.000017      0.000001
      1.61404      8.07019      5.59276        -0.000025      0.000029      0.000001
      1.61404     11.29827      5.59276        -0.000029      0.000012      0.000000
      4.84211      1.61404      5.59276         0.000012     -0.000024      0.000001
      4.84211      4.84211      5.59276         0.000019     -0.000004      0.000001
      4.84211      8.07019      5.59276         0.000025      0.000025      0.000000
      4.84211     11.29827      5.59276         0.000016      0.000004      0.000002
      8.07019      1.61404      5.59276         0.000025     -0.000011      0.000002
      8.07019      4.84211      5.59276         0.000027      0.000003      0.000002
      8.07019      8.07019      5.59276         0.000028      0.000014      0.000001
      8.07019     11.29827      5.59276         0.000033     -0.000006      0.000000
     11.29827      1.61404      5.59276        -0.000014     -0.000016      0.000001
     11.29827      4.84211      5.59276        -0.000018     -0.000001      0.000002
     11.29827      8.07019      5.59276        -0.000029      0.000026      0.000001
     11.29827     11.29827      5.59276        -0.000020     -0.000004     -0.000000
      0.00000      0.00000      3.86757         0.000005      0.000005     -0.008903
      0.00000      3.22808      3.86757         0.000013      0.000016     -0.008905
      0.00000      6.45615      3.86757         0.000004     -0.000015     -0.008919
      0.00000      9.68423      3.86757        -0.000005     -0.000004     -0.008910
      3.22808      0.00000      3.86757         0.000005      0.000002     -0.008887
      3.22808      3.22808      3.86757        -0.000013      0.000009     -0.008888
      3.22808      6.45615      3.86757        -0.000001     -0.000006     -0.008906
      3.22808      9.68423      3.86757         0.000017     -0.000004     -0.008907
      6.45615      0.00000      3.86757        -0.000018      0.000003     -0.008904
      6.45615      3.22808      3.86757        -0.000004      0.000004     -0.008895
      6.45615      6.45615      3.86757        -0.000001      0.000013     -0.008910
      6.45615      9.68423      3.86757        -0.000015     -0.000019     -0.008895
      9.68423      0.00000      3.86757         0.000007      0.000005     -0.008922
      9.68423      3.22808      3.86757         0.000003      0.000010     -0.008921
      9.68423      6.45615      3.86757        -0.000002      0.000004     -0.008925
      9.68423      9.68423      3.86757         0.000003     -0.000018     -0.008920
      0.00000      0.00000      7.31794         0.000005      0.000005      0.008903
      0.00000      3.22808      7.31794         0.000013      0.000016      0.008904
      0.00000      6.45615      7.31794         0.000005     -0.000015      0.008919
      0.00000      9.68423      7.31794        -0.000004     -0.000004      0.008910
      3.22808      0.00000      7.31794         0.000005      0.000002      0.008886
      3.22808      3.22808      7.31794        -0.000013      0.000009      0.008888
      3.22808      6.45615      7.31794        -0.000002     -0.000005      0.008906
      3.22808      9.68423      7.31794         0.000016     -0.000004      0.008906
      6.45615      0.00000      7.31794        -0.000017      0.000004      0.008902
      6.45615      3.22808      7.31794        -0.000003      0.000005      0.008894
      6.45615      6.45615      7.31794        -0.000001      0.000013      0.008909
      6.45615      9.68423      7.31794        -0.000015     -0.000018      0.008895
      9.68423      0.00000      7.31794         0.000007      0.000006      0.008921
      9.68423      3.22808      7.31794         0.000003      0.000010      0.008919
      9.68423      6.45615      7.31794        -0.000001      0.000004      0.008924
      9.68423      9.68423      7.31794         0.000002     -0.000018      0.008920
      1.61404      1.61404      9.46033        -0.000007      0.000018     -0.008916
      1.61404      4.84211      9.46033        -0.000011      0.000011     -0.008914
      1.61404      8.07019      9.46033         0.000018     -0.000012     -0.008903
      1.61404     11.29827      9.46033         0.000022     -0.000014     -0.008911
      4.84211      1.61404      9.46033        -0.000009     -0.000008     -0.008922
      4.84211      4.84211      9.46033        -0.000009      0.000031     -0.008917
      4.84211      8.07019      9.46033        -0.000009     -0.000003     -0.008899
      4.84211     11.29827      9.46033        -0.000009     -0.000019     -0.008904
      8.07019      1.61404      9.46033         0.000026     -0.000005     -0.008910
      8.07019      4.84211      9.46033         0.000026      0.000029     -0.008903
      8.07019      8.07019      9.46033         0.000011     -0.000017     -0.008895
      8.07019     11.29827      9.46033         0.000010     -0.000005     -0.008890
     11.29827      1.61404      9.46033        -0.000010      0.000019     -0.008900
     11.29827      4.84211      9.46033        -0.000006      0.000010     -0.008893
     11.29827      8.07019      9.46033        -0.000020     -0.000024     -0.008900
     11.29827     11.29827      9.46033        -0.000024     -0.000002     -0.008914
      1.61404      1.61404      1.72519        -0.000007      0.000018      0.008917
      1.61404      4.84211      1.72519        -0.000011      0.000011      0.008914
      1.61404      8.07019      1.72519         0.000018     -0.000012      0.008904
      1.61404     11.29827      1.72519         0.000022     -0.000014      0.008911
      4.84211      1.61404      1.72519        -0.000009     -0.000008      0.008923
      4.84211      4.84211      1.72519        -0.000009      0.000031      0.008918
      4.84211      8.07019      1.72519        -0.000009     -0.000004      0.008900
      4.84211     11.29827      1.72519        -0.000009     -0.000019      0.008905
      8.07019      1.61404      1.72519         0.000026     -0.000005      0.008912
      8.07019      4.84211      1.72519         0.000026      0.000029      0.008905
      8.07019      8.07019      1.72519         0.000011     -0.000017      0.008896
      8.07019     11.29827      1.72519         0.000010     -0.000006      0.008891
     11.29827      1.61404      1.72519        -0.000010      0.000019      0.008901
     11.29827      4.84211      1.72519        -0.000007      0.000009      0.008894
     11.29827      8.07019      1.72519        -0.000020     -0.000024      0.008900
     11.29827     11.29827      1.72519        -0.000024     -0.000001      0.008914
 -----------------------------------------------------------------------------------
    total drift:                                0.000014     -0.000034      0.000003


--------------------------------------------------------------------------------------------------------



  FREE ENERGIE OF THE ION-ELECTRON SYSTEM (eV)
  ---------------------------------------------------
  free  energy   TOTEN  =      -679.15349004 eV

  energy  without entropy=     -679.21811372  energy(sigma->0) =     -679.17503126
 


--------------------------------------------------------------------------------------------------------


    POTLOK:  cpu time      0.1207: real time      0.1218


--------------------------------------------------------------------------------------------------------




--------------------------------------------------------------------------------------------------------


  
 reached required accuracy - stopping structural energy minimisation
     LOOP+:  cpu time   4142.2641: real time   4170.2095
    4ORBIT:  cpu time      0.0000: real time      0.0000

 total amount of memory used by VASP MPI-rank0   619234. kBytes
=======================================================================

   base                                    :      30000. kBytes
   nonlr-proj                              :      21408. kBytes
   fftplans                                :       6172. kBytes
   grid                                    :      15593. kBytes
   one-center                              :        373. kBytes
   wavefun                                 :     545688. kBytes
 
  
  
 General timing and accounting informations for this job:
 ========================================================
  
                  Total CPU time used (sec):     4210.113
                            User time (sec):     4200.605
                          System time (sec):        9.508
                         Elapsed time (sec):     4240.626
  
                   Maximum memory used (kb):      927868.
                   Average memory used (kb):          N/A
  
                          Minor page faults:       694101
                          Major page faults:            0
                 Voluntary context switches:         4073
