 vasp.6.5.0 16Dec24 (build Mar 11 2025 12:42:07) complex                        
  
 executed on             LinuxIFC date 2025.06.22  01:25:01
 running  128 mpi-ranks, on    2 nodes
 distrk:  each k-point on   64 cores,    2 groups
 distr:  one band on NCORE=   8 cores,    8 groups


--------------------------------------------------------------------------------------------------------


 INCAR:
   ENCUT = 500.000000
   EDIFF = 1.00e-06
   EDIFFG = -2.0e-02
   ALGO = NORMAL
   PREC = ACCURATE
   SYSTEM = Zr2Cu prim
   IBRION = 2
   ISIF = 2
   NSIM = 1
   ISMEAR = 1
   ISPIN = 2
   MAGMOM = 97*0.6
   SIGMA = 0.2
   LWAVE = FALSE
   LREAL = AUTO
   KPAR = 2
   NELM = 200
   NSW = 60
   POTIM = 0.1
   ISYM = -1
   NCORE = 8

 POTCAR:    PAW_PBE Cu_pv 06Sep2000               
 POTCAR:    PAW_PBE Zr_sv 04Jan2005               
 POTCAR:    PAW_PBE Cu_pv 06Sep2000               
   SHA256 =  cb7b504e2ea725fe1f25c85a9ac77d4012ce94cd394135b722c4e25ec297f1cb Cu_pv/POTCAR          
   COPYR  = (c) Copyright 06Sep2000 Georg Kresse                                                    
   COPYR  = This file is part of the software VASP. Any use, copying, and all other rights are regul
   COPYR  = If you do not have a valid VASP license, you may not use, copy or distribute this file. 
   VRHFIN =Cu: d10 p1                                                                               
   LEXCH  = PE                                                                                      
   EATOM  =  4120.1201 eV,  302.8203 Ry                                                             
                                                                                                    
   TITEL  = PAW_PBE Cu_pv 06Sep2000                                                                 
   LULTRA =        F    use ultrasoft PP ?                                                          
   IUNSCR =        1    unscreen: 0-lin 1-nonlin 2-no                                               
   RPACOR =    1.500    partial core radius                                                         
   POMASS =   63.546; ZVAL   =   17.000    mass and valenz                                          
   RCORE  =    2.000    outmost cutoff radius                                                       
   RWIGS  =    2.000; RWIGS  =    1.058    wigner-seitz radius (au A)                               
   ENMAX  =  368.648; ENMIN  =  276.486 eV                                                          
   RCLOC  =    1.304    cutoff for local pot                                                        
   LCOR   =        T    correct aug charges                                                         
   LPAW   =        T    paw PP                                                                      
   EAUG   =  758.233                                                                                
   DEXC   =    0.000                                                                                
   RMAX   =    2.046    core radius for proj-oper                                                   
   RAUG   =    1.300    factor for augmentation sphere                                              
   RDEP   =    2.025    radius for radial grids                                                     
   RDEPT  =    1.558    core radius for aug-charge                                                  
                                                                                                    
   Atomic configuration                                                                             
    8 entries                                                                                       
     n  l   j            E        occ.                                                              
     1  0  0.50     -8850.2467   2.0000                                                             
     2  0  0.50     -1062.3498   2.0000                                                             
     2  1  1.50      -916.8226   6.0000                                                             
     3  0  0.50      -114.6929   2.0000                                                             
     3  1  1.50       -72.1325   6.0000                                                             
     3  2  2.50        -5.0394  10.0000                                                             
     4  0  0.50        -4.6097   1.0000                                                             
     4  3  2.50        -1.3606   0.0000                                                             
   Description                                                                                      
     l       E           TYP  RCUT    TYP  RCUT                                                     
     1    -72.1324777     23  1.700                                                                 
     1     -1.3605826     23  1.700                                                                 
     2     -5.0393776     23  2.000                                                                 
     2     -6.3999602     23  2.000                                                                 
     0     -4.6097062     23  1.800                                                                 
     0     14.1620818     23  1.800                                                                 
  local pseudopotential read in
  partial core-charges read in
  partial kinetic energy density read in
  atomic valenz-charges read in
  non local Contribution for L=           1  read in
    real space projection operators read in
  non local Contribution for L=           1  read in
    real space projection operators read in
  non local Contribution for L=           2  read in
    real space projection operators read in
  non local Contribution for L=           2  read in
    real space projection operators read in
  non local Contribution for L=           0  read in
    real space projection operators read in
  non local Contribution for L=           0  read in
    real space projection operators read in
    PAW grid and wavefunctions read in
 
   number of l-projection  operators is LMAX  =           6
   number of lm-projection operators is LMMAX =          18
 
 POTCAR:    PAW_PBE Zr_sv 04Jan2005               
   SHA256 =  25aed69cb10325f9d37c5c68912b61a17387d1f8e4f1d804860ffa10c8a4bf76 Zr_sv/POTCAR          
   COPYR  = (c) Copyright 04Jan2005 Georg Kresse                                                    
   COPYR  = This file is part of the software VASP. Any use, copying, and all other rights are regul
   COPYR  = If you do not have a valid VASP license, you may not use, copy or distribute this file. 
   VRHFIN =Zr: 4s4p5s4d                                                                             
   LEXCH  = PE                                                                                      
   EATOM  =  1284.2219 eV,   94.3876 Ry                                                             
                                                                                                    
   TITEL  = PAW_PBE Zr_sv 04Jan2005                                                                 
   LULTRA =        F    use ultrasoft PP ?                                                          
   IUNSCR =        1    unscreen: 0-lin 1-nonlin 2-no                                               
   RPACOR =    2.200    partial core radius                                                         
   POMASS =   91.224; ZVAL   =   12.000    mass and valenz                                          
   RCORE  =    2.500    outmost cutoff radius                                                       
   RWIGS  =    3.070; RWIGS  =    1.625    wigner-seitz radius (au A)                               
   ENMAX  =  229.898; ENMIN  =  172.424 eV                                                          
   ICORE  =        3    local potential                                                             
   LCOR   =        T    correct aug charges                                                         
   LPAW   =        T    paw PP                                                                      
   EAUG   =  461.257                                                                                
   DEXC   =    0.000                                                                                
   RMAX   =    2.561    core radius for proj-oper                                                   
   RAUG   =    1.300    factor for augmentation sphere                                              
   RDEP   =    2.597    radius for radial grids                                                     
   RDEPT  =    2.007    core radius for aug-charge                                                  
                                                                                                    
   Atomic configuration                                                                             
   11 entries                                                                                       
     n  l   j            E        occ.                                                              
     1  0  0.50    -17820.0161   2.0000                                                             
     2  0  0.50     -2467.0882   2.0000                                                             
     2  1  1.50     -2199.6095   6.0000                                                             
     3  0  0.50      -402.4863   2.0000                                                             
     3  1  1.50      -315.3675   6.0000                                                             
     3  2  2.50      -172.4472  10.0000                                                             
     4  0  0.50       -52.4146   2.0000                                                             
     5  0  0.50        -3.8421   1.0000                                                             
     4  1  1.50       -30.5054   6.0000                                                             
     4  2  2.50        -2.3341   3.0000                                                             
     4  3  2.50        -1.3606   0.0000                                                             
   Description                                                                                      
     l       E           TYP  RCUT    TYP  RCUT                                                     
     0    -52.4145962     23  2.200                                                                 
     0     -3.8421270     23  2.500                                                                 
     1    -30.5053914     23  2.200                                                                 
     1     20.4087390     23  2.200                                                                 
     2     -2.3340816     23  2.500                                                                 
     2     -0.6120942     23  2.500                                                                 
     3     -4.0817478     23  2.500                                                                 
  local pseudopotential read in
  partial core-charges read in
  partial kinetic energy density read in
  atomic valenz-charges read in
  non local Contribution for L=           0  read in
    real space projection operators read in
  non local Contribution for L=           0  read in
    real space projection operators read in
  non local Contribution for L=           1  read in
    real space projection operators read in
  non local Contribution for L=           1  read in
    real space projection operators read in
  non local Contribution for L=           2  read in
    real space projection operators read in
  non local Contribution for L=           2  read in
    real space projection operators read in
    PAW grid and wavefunctions read in
 
   number of l-projection  operators is LMAX  =           6
   number of lm-projection operators is LMMAX =          18
 
 Optimization of the real space projectors (new method)

 maximal supplied QI-value         = 18.90
 optimisation between [QCUT,QGAM] = [ 11.34, 22.87] = [ 36.00,146.41] Ry 
 Optimized for a Real-space Cutoff    1.39 Angstroem

   l    n(q)    QCUT    max X(q) W(low)/X(q) W(high)/X(q)  e(spline) 
   1      9    11.338     3.172    0.35E-04    0.38E-04    0.13E-06
   1      9    11.338     4.083    0.89E-04    0.74E-04    0.24E-06
   2      9    11.338    65.342    0.14E-03    0.23E-03    0.33E-06
   2      9    11.338    61.381    0.14E-03    0.23E-03    0.33E-06
   0     10    11.338    65.742    0.28E-04    0.32E-04    0.86E-07
   0     10    11.338    30.431    0.24E-04    0.29E-04    0.78E-07
 Optimization of the real space projectors (new method)

 maximal supplied QI-value         = 15.12
 optimisation between [QCUT,QGAM] = [ 11.34, 22.83] = [ 36.00,145.93] Ry 
 Optimized for a Real-space Cutoff    1.52 Angstroem

   l    n(q)    QCUT    max X(q) W(low)/X(q) W(high)/X(q)  e(spline) 
   0     10    11.338    12.107    0.25E-04    0.17E-04    0.51E-07
   0     10    11.338     9.948    0.49E-04    0.35E-04    0.12E-06
   1     10    11.338     3.563    0.20E-04    0.52E-05    0.48E-07
   1     10    11.338     4.524    0.21E-03    0.12E-03    0.44E-06
   2      9    11.338    87.261    0.14E-03    0.22E-04    0.23E-06
   2      9    11.338    70.950    0.14E-03    0.22E-04    0.23E-06
  PAW_PBE Cu_pv 06Sep2000               :
 energy of atom  1       EATOM=-4120.1201
 kinetic energy error for atom=    0.0655 (will be added to EATOM!!)
  PAW_PBE Zr_sv 04Jan2005               :
 energy of atom  2       EATOM=-1284.2219
 kinetic energy error for atom=    0.0049 (will be added to EATOM!!)
 
 
 POSCAR: Cu Zr
  positions in direct lattice
  velocities in cartesian coordinates


 exchange-correlation table for PE
   RHO(1)=    0.500       N(1)  =     2000
   RHO(2)=  100.500       N(2)  =     4000
 


--------------------------------------------------------------------------------------------------------


 ion  position               nearest neighbor table
   1  0.000  1.000  0.991-  33 2.49  69 2.83  66 2.83  81 2.83  78 2.83  82 2.95  85 2.95  97 2.95
                            94 2.95
   2  0.000  0.258  0.995-  67 2.80  79 2.80  82 2.85  94 2.85  83 2.85  95 2.85  66 2.87  78 2.87

   3  0.000  0.500  0.997-  68 2.84  80 2.84  67 2.84  79 2.84  83 2.87  84 2.87  95 2.87  96 2.87

   4  0.000  0.742  0.995-  68 2.80  80 2.80  85 2.85  97 2.85  84 2.85  96 2.85  69 2.87  81 2.87

   5  0.258  1.000  0.995-  73 2.80  70 2.80  85 2.85  82 2.85  89 2.85  86 2.85  66 2.87  69 2.87

   6  0.257  0.257  0.994-  71 2.77  82 2.78  87 2.81  70 2.84  67 2.84  66 2.86  83 2.93  86 2.93

   7  0.253  0.500  1.000-  87 2.85  88 2.85  72 2.87  71 2.87  68 2.87  67 2.87  84 2.87  83 2.87

   8  0.257  0.743  0.994-  72 2.77  85 2.78  88 2.81  73 2.84  68 2.84  69 2.86  89 2.93  84 2.93

   9  0.500  1.000  0.997-  77 2.84  74 2.84  73 2.84  70 2.84  89 2.87  93 2.87  86 2.87  90 2.87

  10  0.500  0.253  1.000-  87 2.85  91 2.85  75 2.87  71 2.87  70 2.87  74 2.87  90 2.87  86 2.87

  11  0.500  0.500  0.005-  88 2.84  87 2.84  92 2.84  91 2.84  76 2.88  72 2.88  75 2.88  71 2.88

  12  0.500  0.747  1.000-  88 2.85  92 2.85  76 2.87  72 2.87  73 2.87  77 2.87  93 2.87  89 2.87

  13  0.742  1.000  0.995-  77 2.80  74 2.80  97 2.85  94 2.85  93 2.85  90 2.85  81 2.87  78 2.87

  14  0.743  0.257  0.994-  75 2.77  94 2.78  91 2.81  79 2.84  74 2.84  78 2.86  95 2.93  90 2.93

  15  0.747  0.500  1.000-  91 2.85  92 2.85  76 2.87  75 2.87  80 2.87  79 2.87  96 2.87  95 2.87

  16  0.743  0.743  0.994-  76 2.77  97 2.78  92 2.81  80 2.84  77 2.84  81 2.86  93 2.93  96 2.93

  17  0.138  0.138  0.507-  55 2.68  34 2.68  39 2.75  54 2.81  51 2.81  38 2.90  35 2.90  50 3.16

  18  0.121  0.365  0.496-  51 2.81  39 2.81  35 2.85  36 2.86  55 2.87  52 2.91  40 2.93  56 2.95

  19  0.121  0.635  0.496-  53 2.81  41 2.81  37 2.85  36 2.86  57 2.87  52 2.91  40 2.93  56 2.95

  20  0.138  0.862  0.507-  57 2.68  34 2.68  41 2.75  53 2.81  54 2.81  37 2.90  38 2.90  50 3.16

  21  0.365  0.121  0.496-  54 2.81  39 2.81  38 2.85  42 2.86  55 2.87  58 2.91  43 2.93  59 2.95

  22  0.376  0.376  0.497-  60 2.83  40 2.84  43 2.84  44 2.84  56 2.86  59 2.86  39 2.86  55 2.87

  23  0.376  0.624  0.497-  60 2.83  40 2.84  45 2.84  44 2.84  56 2.86  61 2.86  41 2.86  57 2.87

  24  0.365  0.879  0.496-  54 2.81  41 2.81  38 2.85  42 2.86  57 2.87  58 2.91  45 2.93  61 2.95

  25  0.635  0.121  0.496-  62 2.81  47 2.81  46 2.85  42 2.86  63 2.87  58 2.91  43 2.93  59 2.95

  26  0.624  0.376  0.497-  60 2.83  43 2.84  48 2.84  44 2.84  59 2.86  64 2.86  47 2.86  63 2.87

  27  0.624  0.624  0.497-  60 2.83  48 2.84  45 2.84  44 2.84  61 2.86  64 2.86  49 2.86  65 2.87

  28  0.635  0.879  0.496-  62 2.81  49 2.81  46 2.85  42 2.86  65 2.87  58 2.91  45 2.93  61 2.95

  29  0.862  0.138  0.507-  63 2.68  34 2.68  47 2.75  62 2.81  51 2.81  46 2.90  35 2.90  50 3.16

  30  0.879  0.365  0.496-  51 2.81  47 2.81  35 2.85  36 2.86  63 2.87  52 2.91  48 2.93  64 2.95

  31  0.879  0.635  0.496-  53 2.81  49 2.81  37 2.85  36 2.86  65 2.87  52 2.91  48 2.93  64 2.95

  32  0.862  0.862  0.507-  65 2.68  34 2.68  49 2.75  53 2.81  62 2.81  37 2.90  46 2.90  50 3.16

  33  0.000  1.000  0.214-  34 2.38   1 2.49  97 2.59  85 2.59  82 2.59  94 2.59
  34  0.000  1.000  0.427-  33 2.38  17 2.68  29 2.68  20 2.68  32 2.68  50 2.80  37 3.24  38 3.24
                            46 3.24  35 3.24
  35  1.000  0.239  0.339-  30 2.85  18 2.85  17 2.90  29 2.90  94 3.14  82 3.14  95 3.16  83 3.16
                            47 3.24  39 3.24  34 3.24  36 3.37  51 3.54
  36  0.000  0.500  0.349-  30 2.86  18 2.86  31 2.86  19 2.86  84 3.13  96 3.13  83 3.13  95 3.13
                            48 3.22  40 3.22  37 3.37  35 3.37  52 3.37
  37  1.000  0.761  0.339-  31 2.85  19 2.85  20 2.90  32 2.90  97 3.14  85 3.14  84 3.16  96 3.16
                            49 3.24  41 3.24  34 3.24  36 3.37  53 3.54
  38  0.239  1.000  0.339-  24 2.85  21 2.85  17 2.90  20 2.90  85 3.14  82 3.14  89 3.16  86 3.16
                            41 3.24  39 3.24  34 3.24  42 3.37  54 3.54
  39  0.250  0.250  0.344-  17 2.75  21 2.81  18 2.81  22 2.86  87 3.10  86 3.12  83 3.12  82 3.13
                            43 3.22  40 3.22  35 3.24  38 3.24  55 3.51
  40  0.249  0.500  0.348-  23 2.84  22 2.84  19 2.93  18 2.93  84 3.12  83 3.12  88 3.14  87 3.14
                            36 3.22  41 3.22  39 3.22  44 3.24  56 3.37
  41  0.250  0.750  0.344-  20 2.75  24 2.81  19 2.81  23 2.86  88 3.10  84 3.12  89 3.12  85 3.13
                            40 3.22  45 3.22  38 3.24  37 3.24  57 3.51
  42  0.500  0.000  0.349-  24 2.86  21 2.86  25 2.86  28 2.86  90 3.13  93 3.13  86 3.13  89 3.13
                            45 3.22  43 3.22  46 3.37  38 3.37  58 3.37
  43  0.500  0.249  0.348-  26 2.84  22 2.84  25 2.93  21 2.93  90 3.12  86 3.12  91 3.14  87 3.14
                            42 3.22  47 3.22  39 3.22  44 3.24  59 3.37
  44  0.500  0.500  0.345-  27 2.84  22 2.84  26 2.84  23 2.84  87 3.12  91 3.12  88 3.12  92 3.12
                            40 3.24  43 3.24  48 3.24  45 3.24  60 3.40
  45  0.500  0.751  0.348-  27 2.84  23 2.84  24 2.93  28 2.93  93 3.12  89 3.12  88 3.14  92 3.14
                            42 3.22  41 3.22  49 3.22  44 3.24  61 3.37
  46  0.761  1.000  0.339-  28 2.85  25 2.85  29 2.90  32 2.90  97 3.14  94 3.14  93 3.16  90 3.16
                            49 3.24  47 3.24  34 3.24  42 3.37  62 3.54
  47  0.750  0.250  0.344-  29 2.75  25 2.81  30 2.81  26 2.86  91 3.10  90 3.12  95 3.12  94 3.13
                            43 3.22  48 3.22  46 3.24  35 3.24  63 3.51
  48  0.751  0.500  0.348-  27 2.84  26 2.84  31 2.93  30 2.93  96 3.12  95 3.12  92 3.14  91 3.14
                            36 3.22  49 3.22  47 3.22  44 3.24  64 3.37
  49  0.750  0.750  0.344-  32 2.75  28 2.81  31 2.81  27 2.86  92 3.10  93 3.12  96 3.12  97 3.13
                            48 3.22  45 3.22  46 3.24  37 3.24  65 3.51
  50  1.000  1.000  0.677-  34 2.80  66 3.03  69 3.03  78 3.03  81 3.03  32 3.16  29 3.16  20 3.16
                            17 3.16  51 3.20  53 3.20  62 3.20  54 3.20
  51  0.000  0.247  0.655-  18 2.81  30 2.81  29 2.81  17 2.81  66 3.13  78 3.13  79 3.15  67 3.15
                            50 3.20  52 3.26  55 3.27  63 3.27  35 3.54
  52  1.000  0.500  0.650-  19 2.91  31 2.91  18 2.91  30 2.91  79 3.14  67 3.14  80 3.14  68 3.14
                            56 3.21  64 3.21  53 3.26  51 3.26  36 3.37
  53  0.000  0.753  0.655-  19 2.81  31 2.81  32 2.81  20 2.81  69 3.13  81 3.13  80 3.15  68 3.15
                            50 3.20  52 3.26  57 3.27  65 3.27  37 3.54
  54  0.247  1.000  0.655-  21 2.81  24 2.81  17 2.81  20 2.81  66 3.13  69 3.13  73 3.15  70 3.15
                            50 3.20  58 3.26  57 3.27  55 3.27  38 3.54
  55  0.253  0.253  0.657-  17 2.68  22 2.87  18 2.87  21 2.87  71 3.07  67 3.10  70 3.10  66 3.13
                            59 3.19  56 3.19  51 3.27  54 3.27  39 3.51
  56  0.248  0.500  0.649-  22 2.86  23 2.86  19 2.95  18 2.95  67 3.13  68 3.13  71 3.15  72 3.15
                            57 3.19  55 3.19  52 3.21  60 3.25  40 3.37
  57  0.253  0.747  0.657-  20 2.68  23 2.87  19 2.87  24 2.87  72 3.07  73 3.10  68 3.10  69 3.13
                            56 3.19  61 3.19  54 3.27  53 3.27  41 3.51
  58  0.500  0.000  0.650-  25 2.91  28 2.91  21 2.91  24 2.91  73 3.14  70 3.14  77 3.14  74 3.14
                            59 3.21  61 3.21  54 3.26  62 3.26  42 3.37
  59  0.500  0.248  0.649-  26 2.86  22 2.86  25 2.95  21 2.95  70 3.13  74 3.13  71 3.15  75 3.15
                            63 3.19  55 3.19  58 3.21  60 3.25  43 3.37
  60  0.500  0.500  0.648-  26 2.83  23 2.83  22 2.83  27 2.83  72 3.11  76 3.11  75 3.11  71 3.11
                            61 3.25  64 3.25  56 3.25  59 3.25  44 3.40
  61  0.500  0.752  0.649-  23 2.86  27 2.86  28 2.95  24 2.95  73 3.13  77 3.13  76 3.15  72 3.15
                            65 3.19  57 3.19  58 3.21  60 3.25  45 3.37
  62  0.753  1.000  0.655-  25 2.81  28 2.81  29 2.81  32 2.81  78 3.13  81 3.13  77 3.15  74 3.15
                            50 3.20  58 3.26  63 3.27  65 3.27  46 3.54
  63  0.747  0.253  0.657-  29 2.68  26 2.87  25 2.87  30 2.87  75 3.07  79 3.10  74 3.10  78 3.13
                            59 3.19  64 3.19  51 3.27  62 3.27  47 3.51
  64  0.752  0.500  0.649-  26 2.86  27 2.86  31 2.95  30 2.95  79 3.13  80 3.13  76 3.15  75 3.15
                            65 3.19  63 3.19  52 3.21  60 3.25  48 3.37
  65  0.747  0.747  0.657-  32 2.68  27 2.87  31 2.87  28 2.87  76 3.07  77 3.10  80 3.10  81 3.13
                            64 3.19  61 3.19  62 3.27  53 3.27  49 3.51
  66  0.128  0.128  0.849-   1 2.83   6 2.86   2 2.87   5 2.87  50 3.03  55 3.13  54 3.13  51 3.13
                            70 3.22  67 3.22  82 3.24  69 3.31  78 3.31
  67  0.126  0.377  0.844-   2 2.80   3 2.84   6 2.84   7 2.87  55 3.10  56 3.13  52 3.14  51 3.15
                            68 3.17  66 3.22  79 3.25  71 3.25  83 3.48
  68  0.126  0.623  0.844-   4 2.80   3 2.84   8 2.84   7 2.87  57 3.10  56 3.13  52 3.14  53 3.15
                            67 3.17  69 3.22  80 3.25  72 3.25  84 3.48
  69  0.128  0.872  0.849-   1 2.83   8 2.86   5 2.87   4 2.87  50 3.03  57 3.13  53 3.13  54 3.13
                            68 3.22  73 3.22  85 3.24  81 3.31  66 3.31
  70  0.377  0.126  0.844-   5 2.80   9 2.84   6 2.84  10 2.87  55 3.10  59 3.13  58 3.14  54 3.15
                            74 3.17  66 3.22  73 3.25  71 3.25  86 3.48
  71  0.378  0.378  0.842-   6 2.77   7 2.87  10 2.87  11 2.88  55 3.07  60 3.11  56 3.15  59 3.15
                            75 3.16  72 3.16  67 3.25  70 3.25  87 3.50
  72  0.378  0.622  0.842-   8 2.77  12 2.87   7 2.87  11 2.88  57 3.07  60 3.11  56 3.15  61 3.15
                            71 3.16  76 3.16  73 3.25  68 3.25  88 3.50
  73  0.377  0.874  0.844-   5 2.80   9 2.84   8 2.84  12 2.87  57 3.10  61 3.13  58 3.14  54 3.15
                            77 3.17  69 3.22  70 3.25  72 3.25  89 3.48
  74  0.623  0.126  0.844-  13 2.80   9 2.84  14 2.84  10 2.87  63 3.10  59 3.13  58 3.14  62 3.15
                            70 3.17  78 3.22  77 3.25  75 3.25  90 3.48
  75  0.622  0.378  0.842-  14 2.77  15 2.87  10 2.87  11 2.88  63 3.07  60 3.11  59 3.15  64 3.15
                            71 3.16  76 3.16  74 3.25  79 3.25  91 3.50
  76  0.622  0.622  0.842-  16 2.77  15 2.87  12 2.87  11 2.88  65 3.07  60 3.11  61 3.15  64 3.15
                            72 3.16  75 3.16  77 3.25  80 3.25  92 3.50
  77  0.623  0.874  0.844-  13 2.80   9 2.84  16 2.84  12 2.87  65 3.10  61 3.13  58 3.14  62 3.15
                            73 3.17  81 3.22  74 3.25  76 3.25  93 3.48
  78  0.872  0.128  0.849-   1 2.83  14 2.86   2 2.87  13 2.87  50 3.03  63 3.13  62 3.13  51 3.13
                            74 3.22  79 3.22  94 3.24  81 3.31  66 3.31
  79  0.874  0.377  0.844-   2 2.80   3 2.84  14 2.84  15 2.87  63 3.10  64 3.13  52 3.14  51 3.15
                            80 3.17  78 3.22  67 3.25  75 3.25  95 3.48
  80  0.874  0.623  0.844-   4 2.80   3 2.84  16 2.84  15 2.87  65 3.10  64 3.13  52 3.14  53 3.15
                            79 3.17  81 3.22  68 3.25  76 3.25  96 3.48
  81  0.872  0.872  0.849-   1 2.83  16 2.86   4 2.87  13 2.87  50 3.03  65 3.13  53 3.13  62 3.13
                            80 3.22  77 3.22  97 3.24  78 3.31  69 3.31
  82  0.134  0.134  0.138-  33 2.59   6 2.78   2 2.85   5 2.85   1 2.95  39 3.13  38 3.14  35 3.14
                            86 3.15  83 3.15  66 3.24  85 3.46  94 3.46
  83  0.125  0.377  0.155-   2 2.85   3 2.87   7 2.87   6 2.93  40 3.12  39 3.12  36 3.13  82 3.15
                            35 3.16  84 3.16  95 3.22  87 3.23  67 3.48
  84  0.125  0.623  0.155-   4 2.85   3 2.87   7 2.87   8 2.93  40 3.12  41 3.12  36 3.13  85 3.15
                            37 3.16  83 3.16  96 3.22  88 3.23  68 3.48
  85  0.134  0.866  0.138-  33 2.59   8 2.78   4 2.85   5 2.85   1 2.95  41 3.13  38 3.14  37 3.14
                            89 3.15  84 3.15  69 3.24  82 3.46  97 3.46
  86  0.377  0.125  0.155-   5 2.85   9 2.87  10 2.87   6 2.93  43 3.12  39 3.12  42 3.13  82 3.15
                            38 3.16  90 3.16  89 3.22  87 3.23  70 3.48
  87  0.375  0.375  0.155-   6 2.81  11 2.84  10 2.85   7 2.85  39 3.10  44 3.12  40 3.14  43 3.14
                            83 3.23  86 3.23  88 3.23  91 3.23  71 3.50
  88  0.375  0.625  0.155-   8 2.81  11 2.84   7 2.85  12 2.85  41 3.10  44 3.12  40 3.14  45 3.14
                            84 3.23  89 3.23  92 3.23  87 3.23  72 3.50
  89  0.377  0.875  0.155-   5 2.85   9 2.87  12 2.87   8 2.93  45 3.12  41 3.12  42 3.13  85 3.15
                            38 3.16  93 3.16  86 3.22  88 3.23  73 3.48
  90  0.623  0.125  0.155-  13 2.85   9 2.87  10 2.87  14 2.93  43 3.12  47 3.12  42 3.13  94 3.15
                            46 3.16  86 3.16  93 3.22  91 3.23  74 3.48
  91  0.625  0.375  0.155-  14 2.81  11 2.84  10 2.85  15 2.85  47 3.10  44 3.12  43 3.14  48 3.14
                            90 3.23  95 3.23  92 3.23  87 3.23  75 3.50
  92  0.625  0.625  0.155-  16 2.81  11 2.84  15 2.85  12 2.85  49 3.10  44 3.12  48 3.14  45 3.14
                            93 3.23  96 3.23  91 3.23  88 3.23  76 3.50
  93  0.623  0.875  0.155-  13 2.85   9 2.87  12 2.87  16 2.93  45 3.12  49 3.12  42 3.13  97 3.15
                            46 3.16  89 3.16  90 3.22  92 3.23  77 3.48
  94  0.866  0.134  0.138-  33 2.59  14 2.78  13 2.85   2 2.85   1 2.95  47 3.13  35 3.14  46 3.14
                            95 3.15  90 3.15  78 3.24  82 3.46  97 3.46
  95  0.875  0.377  0.155-   2 2.85   3 2.87  15 2.87  14 2.93  48 3.12  47 3.12  36 3.13  94 3.15
                            35 3.16  96 3.16  83 3.22  91 3.23  79 3.48
  96  0.875  0.623  0.155-   4 2.85   3 2.87  15 2.87  16 2.93  48 3.12  49 3.12  36 3.13  97 3.15
                            37 3.16  95 3.16  84 3.22  92 3.23  80 3.48
  97  0.866  0.866  0.138-  33 2.59  16 2.78   4 2.85  13 2.85   1 2.95  49 3.13  46 3.14  37 3.14
                            96 3.15  93 3.15  81 3.24  94 3.46  85 3.46
 

IMPORTANT INFORMATION: All symmetrisations will be switched off!
NOSYMM: (Re-)initialisation of all symmetry stuff for point group C_1.


----------------------------------------------------------------------------------------

                                     Primitive cell                                     

  volume of cell :    1864.9337

  direct lattice vectors                    reciprocal lattice vectors
    12.912303925  0.000000000  0.000000000     0.077445513  0.000000000  0.000000000
     0.000000000 12.912303925  0.000000000     0.000000000  0.077445513  0.000000000
     0.000000000  0.000000000 11.185513496     0.000000000  0.000000000  0.089401349

  length of vectors
    12.912303925 12.912303925 11.185513496     0.077445513  0.077445513  0.089401349

  position of ions in fractional coordinates (direct lattice)
     0.000000394  0.999999717  0.991243162
     0.000000231  0.258411613  0.995390678
     0.000000216  0.500000302  0.997166344
     0.000000108  0.741588478  0.995395649
     0.258411809  0.999999704  0.995390740
     0.257486310  0.257486366  0.993607048
     0.252568114  0.500000371  0.999776421
     0.257487739  0.742514276  0.993608941
     0.499999965  0.999999753  0.997166282
     0.499999957  0.252568539  0.999777243
     0.499999891  0.500000401  0.005133287
     0.499999774  0.747432073  0.999775834
     0.741587818  0.999999706  0.995395468
     0.742513946  0.257488024  0.993608945
     0.747431900  0.500000188  0.999775175
     0.742512679  0.742512850  0.993611078
     0.138385677  0.138382820  0.507441300
     0.120728466  0.364552439  0.496254276
     0.120728738  0.635447864  0.496255210
     0.138384833  0.861614420  0.507443875
     0.364552207  0.120728063  0.496253816
     0.375620826  0.375621098  0.497486600
     0.375620692  0.624379392  0.497485837
     0.364552622  0.879271284  0.496253442
     0.635447431  0.120728369  0.496254795
     0.624378911  0.375620920  0.497486356
     0.624378701  0.624378850  0.497480161
     0.635447294  0.879271219  0.496254465
     0.861614371  0.138382491  0.507442464
     0.879271643  0.364552495  0.496253856
     0.879271344  0.635447736  0.496254786
     0.861615245  0.861614902  0.507445058
     0.000000095  0.999999958  0.214109421
     0.000000035  0.999999943  0.426778437
     0.999999821  0.239467374  0.339224978
     0.000000156  0.500000383  0.349364163
     0.999999966  0.760532855  0.339225073
     0.239467245  0.999999603  0.339224804
     0.250322879  0.250322917  0.343503154
     0.249067360  0.500000636  0.347828924
     0.250322564  0.749677015  0.343503682
     0.500000146  0.000000073  0.349364046
     0.500000520  0.249067406  0.347828878
     0.499999234  0.499999281  0.344860994
     0.499999527  0.750933119  0.347828596
     0.760532654  0.999999694  0.339225141
     0.749676836  0.250322641  0.343503728
     0.750933017  0.500000392  0.347828694
     0.749677440  0.749677430  0.343503896
     0.999999920  0.999999910  0.677308673
     0.000000081  0.247333342  0.655233715
     0.999999959  0.500000041  0.650491108
     0.000000009  0.752666393  0.655234510
     0.247333657  0.999999872  0.655233964
     0.253042181  0.253042060  0.657464423
     0.248454803  0.500000446  0.649478672
     0.253042713  0.746957761  0.657465003
     0.499999934  0.000000049  0.650491321
     0.500000201  0.248454804  0.649478739
     0.500000406  0.500000748  0.648494462
     0.500000458  0.751544930  0.649478287
     0.752666243  0.999999970  0.655234557
     0.746957832  0.253042469  0.657464905
     0.751544792  0.500000652  0.649478396
     0.746957067  0.746957202  0.657465180
     0.128119117  0.128118878  0.849299583
     0.125742768  0.377223518  0.844218523
     0.125742457  0.622777213  0.844219228
     0.128118944  0.871880587  0.849299625
     0.377223516  0.125742791  0.844218789
     0.377698146  0.377698308  0.842254555
     0.377697996  0.622302210  0.842255016
     0.377223569  0.874257486  0.844218160
     0.622776977  0.125742592  0.844219513
     0.622301904  0.377698168  0.842255053
     0.622302027  0.622302387  0.842255568
     0.622776992  0.874257630  0.844218833
     0.871880726  0.128118818  0.849300110
     0.874257593  0.377223593  0.844218279
     0.874257702  0.622777288  0.844218987
     0.871880877  0.871880766  0.849300183
     0.133833367  0.133833324  0.138496674
     0.124717388  0.377473920  0.155132782
     0.124717797  0.622525817  0.155133534
     0.133833697  0.866166826  0.138497384
     0.377473819  0.124717305  0.155132959
     0.374870666  0.374870941  0.155358825
     0.374870850  0.625129133  0.155359602
     0.377473838  0.875282597  0.155132966
     0.622525639  0.124717763  0.155133475
     0.625129102  0.374871020  0.155359646
     0.625128908  0.625128881  0.155360416
     0.622525684  0.875282209  0.155133401
     0.866166797  0.133833649  0.138497170
     0.875282640  0.377473895  0.155132632
     0.875282267  0.622525746  0.155133360
     0.866166632  0.866166646  0.138497840

  ion indices of the primitive-cell ions
   primitive index   ion index
                 1           1
                 2           2
                 3           3
                 4           4
                 5           5
                 6           6
                 7           7
                 8           8
                 9           9
                10          10
                11          11
                12          12
                13          13
                14          14
                15          15
                16          16
                17          17
                18          18
                19          19
                20          20
                21          21
                22          22
                23          23
                24          24
                25          25
                26          26
                27          27
                28          28
                29          29
                30          30
                31          31
                32          32
                33          33
                34          34
                35          35
                36          36
                37          37
                38          38
                39          39
                40          40
                41          41
                42          42
                43          43
                44          44
                45          45
                46          46
                47          47
                48          48
                49          49
                50          50
                51          51
                52          52
                53          53
                54          54
                55          55
                56          56
                57          57
                58          58
                59          59
                60          60
                61          61
                62          62
                63          63
                64          64
                65          65
                66          66
                67          67
                68          68
                69          69
                70          70
                71          71
                72          72
                73          73
                74          74
                75          75
                76          76
                77          77
                78          78
                79          79
                80          80
                81          81
                82          82
                83          83
                84          84
                85          85
                86          86
                87          87
                88          88
                89          89
                90          90
                91          91
                92          92
                93          93
                94          94
                95          95
                96          96
                97          97

----------------------------------------------------------------------------------------

 
 
 KPOINTS: KPOINTS created by Atomic Simulation Env

Automatic generation of k-mesh.
 Grid dimensions derived from RKLEN:
 generate k-points for:    3    3    3

 Generating k-lattice:

  Cartesian coordinates                     Fractional coordinates (reciprocal lattice)
     0.025815171  0.000000000  0.000000000     0.333333333  0.000000000  0.000000000
     0.000000000  0.025815171  0.000000000     0.000000000  0.333333333  0.000000000
     0.000000000  0.000000000  0.029800450     0.000000000  0.000000000  0.333333333

  Length of vectors
     0.025815171  0.025815171  0.029800450

  Shift w.r.t. Gamma in fractional coordinates (k-lattice)
     0.000000000  0.000000000  0.000000000

 
 Subroutine IBZKPT returns following result:
 ===========================================
 
 Found     27 irreducible k-points:
 
 Following reciprocal coordinates:
            Coordinates               Weight
  0.000000  0.000000  0.000000      1.000000
  0.333333  0.000000  0.000000      1.000000
 -0.333333  0.000000  0.000000      1.000000
  0.000000  0.333333  0.000000      1.000000
  0.333333  0.333333  0.000000      1.000000
 -0.333333  0.333333  0.000000      1.000000
  0.000000 -0.333333  0.000000      1.000000
  0.333333 -0.333333  0.000000      1.000000
 -0.333333 -0.333333  0.000000      1.000000
  0.000000  0.000000  0.333333      1.000000
  0.333333  0.000000  0.333333      1.000000
 -0.333333  0.000000  0.333333      1.000000
  0.000000  0.333333  0.333333      1.000000
  0.333333  0.333333  0.333333      1.000000
 -0.333333  0.333333  0.333333      1.000000
  0.000000 -0.333333  0.333333      1.000000
  0.333333 -0.333333  0.333333      1.000000
 -0.333333 -0.333333  0.333333      1.000000
  0.000000  0.000000 -0.333333      1.000000
  0.333333  0.000000 -0.333333      1.000000
 -0.333333  0.000000 -0.333333      1.000000
  0.000000  0.333333 -0.333333      1.000000
  0.333333  0.333333 -0.333333      1.000000
 -0.333333  0.333333 -0.333333      1.000000
  0.000000 -0.333333 -0.333333      1.000000
  0.333333 -0.333333 -0.333333      1.000000
 -0.333333 -0.333333 -0.333333      1.000000
 
 Following cartesian coordinates:
            Coordinates               Weight
  0.000000  0.000000  0.000000      1.000000
  0.025815  0.000000  0.000000      1.000000
 -0.025815  0.000000  0.000000      1.000000
  0.000000  0.025815  0.000000      1.000000
  0.025815  0.025815  0.000000      1.000000
 -0.025815  0.025815  0.000000      1.000000
  0.000000 -0.025815  0.000000      1.000000
  0.025815 -0.025815  0.000000      1.000000
 -0.025815 -0.025815  0.000000      1.000000
  0.000000  0.000000  0.029800      1.000000
  0.025815  0.000000  0.029800      1.000000
 -0.025815  0.000000  0.029800      1.000000
  0.000000  0.025815  0.029800      1.000000
  0.025815  0.025815  0.029800      1.000000
 -0.025815  0.025815  0.029800      1.000000
  0.000000 -0.025815  0.029800      1.000000
  0.025815 -0.025815  0.029800      1.000000
 -0.025815 -0.025815  0.029800      1.000000
  0.000000  0.000000 -0.029800      1.000000
  0.025815  0.000000 -0.029800      1.000000
 -0.025815  0.000000 -0.029800      1.000000
  0.000000  0.025815 -0.029800      1.000000
  0.025815  0.025815 -0.029800      1.000000
 -0.025815  0.025815 -0.029800      1.000000
  0.000000 -0.025815 -0.029800      1.000000
  0.025815 -0.025815 -0.029800      1.000000
 -0.025815 -0.025815 -0.029800      1.000000
 


--------------------------------------------------------------------------------------------------------




 Dimension of arrays:
   k-points           NKPTS =     27   k-points in BZ     NKDIM =     27   number of bands    NBANDS=    832
   number of dos      NEDOS =    301   number of ions     NIONS =     97
   non local maximal  LDIM  =      6   non local SUM 2l+1 LMDIM =     18
   total plane-waves  NPLWV = 774144
   max r-space proj   IRMAX =   6139   max aug-charges    IRDMAX=  17458
   dimension x,y,z NGX =    96 NGY =   96 NGZ =   84
   dimension x,y,z NGXF=   192 NGYF=  192 NGZF=  168
   support grid    NGXF=   192 NGYF=  192 NGZF=  168
   ions per type =              33  64
   NGX,Y,Z   is equivalent  to a cutoff of  12.36, 12.36, 12.48 a.u.
   NGXF,Y,Z  is equivalent  to a cutoff of  24.72, 24.72, 24.97 a.u.

 SYSTEM =  Zr2Cu prim                              
 POSCAR =  Cu Zr                                   

 Startparameter for this run:
   NWRITE =      2    write-flag & timer
   PREC   = accura    normal or accurate (medium, high low for compatibility)
   ISTART =      0    job   : 0-new  1-cont  2-samecut
   ICHARG =      2    charge: 1-file 2-atom 10-const
   ISPIN  =      2    spin polarized calculation?
   LNONCOLLINEAR =      F non collinear calculations
   LSORBIT =      F    spin-orbit coupling
   INIWAV =      1    electr: 0-lowe 1-rand  2-diag
   LASPH  =      F    aspherical Exc in radial PAW
 Electronic Relaxation 1
   ENCUT  =  500.0 eV  36.75 Ry    6.06 a.u.  23.54 23.54 20.39*2*pi/ulx,y,z
   ENINI  =  500.0     initial cutoff
   ENAUG  =  758.2 eV  augmentation charge cutoff
   NELM   =    200;   NELMIN=  2; NELMDL=  0     # of ELM steps 
   EDIFF  = 0.1E-05   stopping-criterion for ELM
   LREAL  =      T    real-space projection
   NLSPLINE    = F    spline interpolate recip. space projectors
   LCOMPAT=      F    compatible to vasp.4.4
   GGA_COMPAT  = T    GGA compatible to vasp.4.4-vasp.4.6
   LMAXPAW     = -100 max onsite density
   LMAXMIX     =    2 max onsite mixed and CHGCAR
   VOSKOWN=      0    Vosko Wilk Nusair interpolation
   ROPT   =   -0.00025  -0.00025
 Ionic relaxation
   EDIFFG = -.2E-01   stopping-criterion for IOM
   NSW    =     60    number of steps for IOM
   NBLOCK =      1;   KBLOCK =     60    inner block; outer block 
   IBRION =      2    ionic relax: 0-MD 1-quasi-New 2-CG
   NFREE  =      1    steps in history (QN), initial steepest desc. (CG)
   ISIF   =      2    stress and relaxation
   IWAVPR =     11    prediction:  0-non 1-charg 2-wave 3-comb
   ISYM   =     -1    0-nonsym 1-usesym 2-fastsym
   LCORR  =      T    Harris-Foulkes like correction to forces

   POTIM  = 0.1000    time-step for ionic-motion
   TEIN   =    0.0    initial temperature
   TEBEG  =    0.0;   TEEND  =   0.0 temperature during run
   SMASS  =  -3.00    Nose mass-parameter (am)
   estimated Nose-frequenzy (Omega)   =  0.10E-29 period in steps = 0.63E+47 mass=  -0.381E-26a.u.
   SCALEE = 1.0000    scale energy and forces
   NPACO  =    256;   APACO  = 10.0  distance and # of slots for P.C.
   PSTRESS=    0.0 pullay stress

  Mass of Ions in am
   POMASS =  63.55 91.22
  Ionic Valenz
   ZVAL   =  17.00 12.00
  Atomic Wigner-Seitz radii
   RWIGS  =  -1.00 -1.00
  virtual crystal weights 
   VCA    =   1.00  1.00
   NELECT =    1329.0000    total number of electrons
   NUPDOWN=      -1.0000    fix difference up-down

 DOS related values:
   EMIN   =  10.00;   EMAX   =-10.00  energy-range for DOS
   EFERMI =   0.00;   METHOD = LEGACY      
   ISMEAR =     1;   SIGMA  =   0.20  broadening in eV -4-tet -1-fermi 0-gaus
   EFERMI_NEDOS =   21; number of points for ismear=-14 and -15

 Electronic relaxation 2 (details)
   IALGO  =     38    algorithm
   LDIAG  =      T    sub-space diagonalisation (order eigenvalues)
   LSUBROT=      F    optimize rotation matrix (better conditioning)
   TURBO    =      0    0=normal 1=particle mesh
   IRESTART =      0    0=no restart 2=restart with 2 vectors
   NREBOOT  =      0    no. of reboots
   NMIN     =      0    reboot dimension
   EREF     =   0.00    reference energy to select bands
   IMIX   =      4    mixing-type and parameters
     AMIX     =   0.40;   BMIX     =  1.00
     AMIX_MAG =   1.60;   BMIX_MAG =  1.00
     AMIN     =   0.10
     WC   =   100.;   INIMIX=   1;  MIXPRE=   1;  MAXMIX= -45

 Intra band minimization:
   WEIMIN = 0.0010     energy-eigenvalue tresh-hold
   EBREAK =  0.30E-09  absolut break condition
   DEPER  =   0.30     relativ break condition  

   TIME   =   0.40     timestep for ELM

  volume/ion in A,a.u.               =      19.23       129.74
  Fermi-wavevector in a.u.,A,eV,Ry     =   1.462274  2.763297 29.092584  2.138245
  Thomas-Fermi vector in A             =   2.578507
 
 Write flags
   LWAVE        =      F    write WAVECAR
   LDOWNSAMPLE  =      F    k-point downsampling of WAVECAR
   LCHARG       =      T    write CHGCAR
   LVTOT        =      F    write LOCPOT, total local potential
   LVHAR        =      F    write LOCPOT, Hartree potential only
   WRT_POTENTIAL= false  ! write potential to hdf5 file
   LELF         =      F    write electronic localiz. function (ELF)
   LORBIT       =      0    0 simple, 1 ext, 2 COOP (PROOUT), +10 PAW based schemes


 Python interface
   PLUGINS active      =      F    recompile with -DPLUGINS to activate
 
 Dipole corrections
   LMONO      =      F    monopole corrections only (constant potential shift)
   LDIPOL     =      F    correct potential (dipole corrections)
   IDIPOL     =      0    1-x, 2-y, 3-z, 4-all directions 
   EPSILON    =  1.0000000 bulk dielectric constant
   LVACPOTAV  =      F  vacuum potentials using an averaging scheme for the charge density
   VACPOTFLAT =  0.1000000 required flatness to determine vacuum potential
 
Coulomb truncation method
  LTRUNCATE          =      F  Coulomb kernel truncation to be used
  IDIMENSIONALITY    =      3  Dimensionality of cutoff (0 molecules / 2 surfaces)
  ISURFACE           =     -1  Direction of surface normal
  LCOARSEN           =      F  Coarsen the charge grid before padding, preferred

 
 Exchange correlation treatment:
   GGA     = PE    functional components
   XC_C    = 1    coefficients multiplying the functional components
   LIBXC   =     F    Libxc                    
   VOSKOWN =     0    Vosko Wilk Nusair interpolation
   LHFCALC =     F    Hartree Fock is set to
   LHFONE  =     F    Hartree Fock one center treatment
   AEXX    =    0.0000 exact exchange contribution

 Parameters of functionals:
   PE:
     No parameter
 
 Van der Waals corrections
   IVDW    =     0    specifies the selected vdW correction

 Linear response parameters
   LEPSILON=     F    determine dielectric tensor
   LRPA    =     F    only Hartree local field effects (RPA)
   LNABLA  =     F    use nabla operator in PAW spheres
   LVEL    =     F    velocity operator in full k-point grid
   CSHIFT  =0.1000    complex shift for real part using Kramers Kronig
   OMEGAMAX=  -1.0    maximum frequency
   DEG_THRESHOLD= 0.2000000E-02 threshold for treating states as degnerate
   RTIME   =   -0.100 relaxation time in fs
  (WPLASMAI=    0.000 imaginary part of plasma frequency in eV, 0.658/RTIME)
   DFIELD  = 0.0000000 0.0000000 0.0000000 field for delta impulse in time
 
  Optional k-point grid parameters
   LKPOINTS_OPT  =     F    use optional k-point grid
   KPOINTS_OPT_MODE=     1    mode for optional k-point grid
 
 Orbital magnetization related:
   ORBITALMAG=     F  switch on orbital magnetization
   LCHIMAG   =     F  perturbation theory with respect to B field
   DQ        =  0.001000  dq finite difference perturbation B field
   LLRAUG    =     F  two centre corrections for induced B field
   LBONE     =     F  B-component reconstruction in AE one-centre
   LVGVCALC  =     T  calculate vGv susceptibility
   LVGVAPPL  =     F  apply vGv susceptibility instead of pGv for G=0

 Random number generation:
   RANDOM_GENERATOR = DEFAULT
   PCG_SEED         = not used


--------------------------------------------------------------------------------------------------------


 conjugate gradient relaxation of ions
 charge density and potential will be updated during run
 spin polarized calculation
 Variant of blocked Davidson
 Davidson routine will perform the subspace rotation
 perform sub-space diagonalisation
    after iterative eigenvector-optimisation
 modified Broyden-mixing scheme, WC =      100.0
 initial mixing is a Kerker type mixing with AMIX =  0.4000 and BMIX =      1.0000
 Hartree-type preconditioning will be used
 using additional bands          167
 real space projection scheme for non local part
 use partial core corrections
 calculate Harris-corrections to forces 
   (improved forces if not selfconsistent)
 use gradient corrections 
 use of overlap-Matrix (Vanderbilt PP)
 Methfessel and Paxton  Order N= 1 SIGMA  =   0.20


--------------------------------------------------------------------------------------------------------


  energy-cutoff  :      500.00
  volume of cell :     1864.93
      direct lattice vectors                 reciprocal lattice vectors
    12.912303925  0.000000000  0.000000000     0.077445513  0.000000000  0.000000000
     0.000000000 12.912303925  0.000000000     0.000000000  0.077445513  0.000000000
     0.000000000  0.000000000 11.185513496     0.000000000  0.000000000  0.089401349

  length of vectors
    12.912303925 12.912303925 11.185513496     0.077445513  0.077445513  0.089401349


 
 k-points in units of 2pi/SCALE and weight: KPOINTS created by Atomic Simulation Env
   0.00000000  0.00000000  0.00000000       0.037
   0.02581517  0.00000000  0.00000000       0.037
  -0.02581517  0.00000000  0.00000000       0.037
   0.00000000  0.02581517  0.00000000       0.037
   0.02581517  0.02581517  0.00000000       0.037
  -0.02581517  0.02581517  0.00000000       0.037
   0.00000000 -0.02581517  0.00000000       0.037
   0.02581517 -0.02581517  0.00000000       0.037
  -0.02581517 -0.02581517  0.00000000       0.037
   0.00000000  0.00000000  0.02980045       0.037
   0.02581517  0.00000000  0.02980045       0.037
  -0.02581517  0.00000000  0.02980045       0.037
   0.00000000  0.02581517  0.02980045       0.037
   0.02581517  0.02581517  0.02980045       0.037
  -0.02581517  0.02581517  0.02980045       0.037
   0.00000000 -0.02581517  0.02980045       0.037
   0.02581517 -0.02581517  0.02980045       0.037
  -0.02581517 -0.02581517  0.02980045       0.037
   0.00000000  0.00000000 -0.02980045       0.037
   0.02581517  0.00000000 -0.02980045       0.037
  -0.02581517  0.00000000 -0.02980045       0.037
   0.00000000  0.02581517 -0.02980045       0.037
   0.02581517  0.02581517 -0.02980045       0.037
  -0.02581517  0.02581517 -0.02980045       0.037
   0.00000000 -0.02581517 -0.02980045       0.037
   0.02581517 -0.02581517 -0.02980045       0.037
  -0.02581517 -0.02581517 -0.02980045       0.037
 
 k-points in reciprocal lattice and weights: KPOINTS created by Atomic Simulation Env
   0.00000000  0.00000000  0.00000000       0.037
   0.33333333  0.00000000  0.00000000       0.037
  -0.33333333  0.00000000  0.00000000       0.037
   0.00000000  0.33333333  0.00000000       0.037
   0.33333333  0.33333333  0.00000000       0.037
  -0.33333333  0.33333333  0.00000000       0.037
   0.00000000 -0.33333333  0.00000000       0.037
   0.33333333 -0.33333333  0.00000000       0.037
  -0.33333333 -0.33333333  0.00000000       0.037
   0.00000000  0.00000000  0.33333333       0.037
   0.33333333  0.00000000  0.33333333       0.037
  -0.33333333  0.00000000  0.33333333       0.037
   0.00000000  0.33333333  0.33333333       0.037
   0.33333333  0.33333333  0.33333333       0.037
  -0.33333333  0.33333333  0.33333333       0.037
   0.00000000 -0.33333333  0.33333333       0.037
   0.33333333 -0.33333333  0.33333333       0.037
  -0.33333333 -0.33333333  0.33333333       0.037
   0.00000000  0.00000000 -0.33333333       0.037
   0.33333333  0.00000000 -0.33333333       0.037
  -0.33333333  0.00000000 -0.33333333       0.037
   0.00000000  0.33333333 -0.33333333       0.037
   0.33333333  0.33333333 -0.33333333       0.037
  -0.33333333  0.33333333 -0.33333333       0.037
   0.00000000 -0.33333333 -0.33333333       0.037
   0.33333333 -0.33333333 -0.33333333       0.037
  -0.33333333 -0.33333333 -0.33333333       0.037
 
 position of ions in fractional coordinates (direct lattice) 
   0.00000039  0.99999972  0.99124316
   0.00000023  0.25841161  0.99539068
   0.00000022  0.50000030  0.99716634
   0.00000011  0.74158848  0.99539565
   0.25841181  0.99999970  0.99539074
   0.25748631  0.25748637  0.99360705
   0.25256811  0.50000037  0.99977642
   0.25748774  0.74251428  0.99360894
   0.49999997  0.99999975  0.99716628
   0.49999996  0.25256854  0.99977724
   0.49999989  0.50000040  0.00513329
   0.49999977  0.74743207  0.99977583
   0.74158782  0.99999971  0.99539547
   0.74251395  0.25748802  0.99360895
   0.74743190  0.50000019  0.99977517
   0.74251268  0.74251285  0.99361108
   0.13838568  0.13838282  0.50744130
   0.12072847  0.36455244  0.49625428
   0.12072874  0.63544786  0.49625521
   0.13838483  0.86161442  0.50744388
   0.36455221  0.12072806  0.49625382
   0.37562083  0.37562110  0.49748660
   0.37562069  0.62437939  0.49748584
   0.36455262  0.87927128  0.49625344
   0.63544743  0.12072837  0.49625480
   0.62437891  0.37562092  0.49748636
   0.62437870  0.62437885  0.49748016
   0.63544729  0.87927122  0.49625446
   0.86161437  0.13838249  0.50744246
   0.87927164  0.36455249  0.49625386
   0.87927134  0.63544774  0.49625479
   0.86161524  0.86161490  0.50744506
   0.00000009  0.99999996  0.21410942
   0.00000004  0.99999994  0.42677844
   0.99999982  0.23946737  0.33922498
   0.00000016  0.50000038  0.34936416
   0.99999997  0.76053286  0.33922507
   0.23946724  0.99999960  0.33922480
   0.25032288  0.25032292  0.34350315
   0.24906736  0.50000064  0.34782892
   0.25032256  0.74967702  0.34350368
   0.50000015  0.00000007  0.34936405
   0.50000052  0.24906741  0.34782888
   0.49999923  0.49999928  0.34486099
   0.49999953  0.75093312  0.34782860
   0.76053265  0.99999969  0.33922514
   0.74967684  0.25032264  0.34350373
   0.75093302  0.50000039  0.34782869
   0.74967744  0.74967743  0.34350390
   0.99999992  0.99999991  0.67730867
   0.00000008  0.24733334  0.65523372
   0.99999996  0.50000004  0.65049111
   0.00000001  0.75266639  0.65523451
   0.24733366  0.99999987  0.65523396
   0.25304218  0.25304206  0.65746442
   0.24845480  0.50000045  0.64947867
   0.25304271  0.74695776  0.65746500
   0.49999993  0.00000005  0.65049132
   0.50000020  0.24845480  0.64947874
   0.50000041  0.50000075  0.64849446
   0.50000046  0.75154493  0.64947829
   0.75266624  0.99999997  0.65523456
   0.74695783  0.25304247  0.65746491
   0.75154479  0.50000065  0.64947840
   0.74695707  0.74695720  0.65746518
   0.12811912  0.12811888  0.84929958
   0.12574277  0.37722352  0.84421852
   0.12574246  0.62277721  0.84421923
   0.12811894  0.87188059  0.84929962
   0.37722352  0.12574279  0.84421879
   0.37769815  0.37769831  0.84225456
   0.37769800  0.62230221  0.84225502
   0.37722357  0.87425749  0.84421816
   0.62277698  0.12574259  0.84421951
   0.62230190  0.37769817  0.84225505
   0.62230203  0.62230239  0.84225557
   0.62277699  0.87425763  0.84421883
   0.87188073  0.12811882  0.84930011
   0.87425759  0.37722359  0.84421828
   0.87425770  0.62277729  0.84421899
   0.87188088  0.87188077  0.84930018
   0.13383337  0.13383332  0.13849667
   0.12471739  0.37747392  0.15513278
   0.12471780  0.62252582  0.15513353
   0.13383370  0.86616683  0.13849738
   0.37747382  0.12471731  0.15513296
   0.37487067  0.37487094  0.15535882
   0.37487085  0.62512913  0.15535960
   0.37747384  0.87528260  0.15513297
   0.62252564  0.12471776  0.15513347
   0.62512910  0.37487102  0.15535965
   0.62512891  0.62512888  0.15536042
   0.62252568  0.87528221  0.15513340
   0.86616680  0.13383365  0.13849717
   0.87528264  0.37747389  0.15513263
   0.87528227  0.62252575  0.15513336
   0.86616663  0.86616665  0.13849784
 
 position of ions in cartesian coordinates  (Angst):
   0.00000509 12.91230027 11.08756376
   0.00000298  3.33668929 11.13395587
   0.00000279  6.45615587 11.15381759
   0.00000139  9.57561582 11.13401146
   3.33669181 12.91230010 11.13395656
   3.32474149  3.32474221 11.11400505
   3.26123625  6.45615675 11.18301265
   3.32475994  9.58757000 11.11402622
   6.45615151 12.91230074 11.15381691
   6.45615140  3.26124174 11.18302184
   6.45615056  6.45615714  0.05741845
   6.45614904  9.65107008 11.18300608
   9.57560730 12.91230013 11.13400945
   9.58756574  3.32476362 11.11402626
   9.65106785  6.45615439 11.18299871
   9.58754937  9.58755159 11.11405012
   1.78687792  1.78684104  5.67599151
   1.55888264  4.70721189  5.55085890
   1.55888616  8.20509595  5.55086935
   1.78686703 11.12542726  5.67602031
   4.70720889  1.55887744  5.55085376
   4.85013027  4.85013378  5.56464308
   4.85012853  8.06217647  5.56463455
   4.70721425 11.35341806  5.55084957
   8.20509036  1.55888140  5.55086471
   8.06217026  4.85013149  5.56464034
   8.06216756  8.06216948  5.56457105
   8.20508859 11.35341721  5.55086101
  11.12542662  1.78683678  5.67600453
  11.35342269  4.70721261  5.55085420
  11.35341883  8.20509430  5.55086461
  11.12543791 11.12543348  5.67603355
   0.00000123 12.91230338  2.39492381
   0.00000045 12.91230319  4.77373597
  12.91230161  3.09207551  3.79440557
   0.00000201  6.45615690  3.90781756
  12.91230349  9.82023137  3.79440663
   3.09207384 12.91229880  3.79440362
   3.23224509  3.23224558  3.84225916
   3.21603345  6.45616018  3.89064512
   3.23224102  9.68005746  3.84226507
   6.45615384  0.00000095  3.90781625
   6.45615867  3.21603404  3.89064461
   6.45614207  6.45614267  3.85744731
   6.45614585  9.69627666  3.89064146
   9.82022877 12.91229997  3.79440739
   9.68005515  3.23224202  3.84226559
   9.69627534  6.45615703  3.89064255
   9.68006295  9.68006282  3.84226746
  12.91230290 12.91230276  7.57604530
   0.00000105  3.19364329  7.32912557
  12.91230339  6.45615249  7.27607706
   0.00000012  9.71865722  7.32913445
   3.19364735 12.91230228  7.32912835
   3.26735754  3.26735599  7.35407717
   3.20812393  6.45615772  7.26475245
   3.26736441  9.64494563  7.35408366
   6.45615111  0.00000064  7.27607944
   6.45615456  3.20812394  7.26475320
   6.45615721  6.45616162  7.25374356
   6.45615787  9.70417654  7.26474815
   9.71865528 12.91230354  7.32913498
   9.64494654  3.26736127  7.35408257
   9.70417476  6.45616039  7.26474937
   9.64493666  9.64493841  7.35408564
   1.65431298  1.65430989  9.49985195
   1.62362883  4.87082472  9.44301768
   1.62362483  8.04148865  9.44302557
   1.65431074 11.25798712  9.49985242
   4.87082469  1.62362913  9.44302065
   4.87695326  4.87695534  9.42104970
   4.87695131  8.03535526  9.42105485
   4.87082538 11.28867837  9.44301363
   8.04148561  1.62362656  9.44302876
   8.03535131  4.87695353  9.42105527
   8.03535290  8.03535756  9.42106102
   8.04148580 11.28868023  9.44302116
  11.25798892  1.65430911  9.49985784
  11.28867974  4.87082569  9.44301495
  11.28868116  8.04148962  9.44302288
  11.25799087 11.25798944  9.49985866
   1.72809712  1.72809656  1.54915642
   1.61038882  4.87405798  1.73523982
   1.61039409  8.03824255  1.73524824
   1.72810137 11.18420930  1.54916435
   4.87405667  1.61038775  1.73524181
   4.84044397  4.84044752  1.73776823
   4.84044635  8.07185736  1.73777693
   4.87405692 11.30191491  1.73524188
   8.03824025  1.61039366  1.73524758
   8.07185696  4.84044854  1.73777741
   8.07185446  8.07185410  1.73778603
   8.03824083 11.30190990  1.73524675
  11.18420894  1.72810075  1.54916196
  11.30191546  4.87405765  1.73523815
  11.30191065  8.03824163  1.73524629
  11.18420680 11.18420698  1.54916945
 


--------------------------------------------------------------------------------------------------------


 k-point     1 :   0.0000 0.0000 0.0000  plane waves:   47421
 k-point     2 :   0.3333 0.0000 0.0000  plane waves:   47283
 k-point     3 :  -0.3333 0.0000 0.0000  plane waves:   47283
 k-point     4 :   0.0000 0.3333 0.0000  plane waves:   47283
 k-point     5 :   0.3333 0.3333 0.0000  plane waves:   47409
 k-point     6 :  -0.3333 0.3333 0.0000  plane waves:   47409
 k-point     7 :   0.0000-0.3333 0.0000  plane waves:   47283
 k-point     8 :   0.3333-0.3333 0.0000  plane waves:   47409
 k-point     9 :  -0.3333-0.3333 0.0000  plane waves:   47409
 k-point    10 :   0.0000 0.0000 0.3333  plane waves:   47401
 k-point    11 :   0.3333 0.0000 0.3333  plane waves:   47356
 k-point    12 :  -0.3333 0.0000 0.3333  plane waves:   47356
 k-point    13 :   0.0000 0.3333 0.3333  plane waves:   47356
 k-point    14 :   0.3333 0.3333 0.3333  plane waves:   47319
 k-point    15 :  -0.3333 0.3333 0.3333  plane waves:   47319
 k-point    16 :   0.0000-0.3333 0.3333  plane waves:   47356
 k-point    17 :   0.3333-0.3333 0.3333  plane waves:   47319
 k-point    18 :  -0.3333-0.3333 0.3333  plane waves:   47319
 k-point    19 :   0.0000 0.0000-0.3333  plane waves:   47401
 k-point    20 :   0.3333 0.0000-0.3333  plane waves:   47356
 k-point    21 :  -0.3333 0.0000-0.3333  plane waves:   47356
 k-point    22 :   0.0000 0.3333-0.3333  plane waves:   47356
 k-point    23 :   0.3333 0.3333-0.3333  plane waves:   47319
 k-point    24 :  -0.3333 0.3333-0.3333  plane waves:   47319
 k-point    25 :   0.0000-0.3333-0.3333  plane waves:   47356
 k-point    26 :   0.3333-0.3333-0.3333  plane waves:   47319
 k-point    27 :  -0.3333-0.3333-0.3333  plane waves:   47319

 maximum and minimum number of plane-waves per node :      5987     5854

 maximum number of plane-waves:     47421
 maximum index in each direction: 
   IXMAX=   23   IYMAX=   23   IZMAX=   20
   IXMIN=  -23   IYMIN=  -23   IZMIN=  -20


 real space projection operators:
  total allocation   :      74105.30 KBytes
  max/ min on nodes  :       9299.11       9211.22


 parallel 3D FFT for wavefunctions:
    minimum data exchange during FFTs selected (reduces bandwidth)
 parallel 3D FFT for charge:
    minimum data exchange during FFTs selected (reduces bandwidth)


 total amount of memory used by VASP MPI-rank0   632237. kBytes
=======================================================================

   base                                    :      30000. kBytes
   nonlr-proj                              :      21524. kBytes
   fftplans                                :       6172. kBytes
   grid                                    :      15593. kBytes
   one-center                              :        404. kBytes
   wavefun                                 :     558544. kBytes
 
     INWAV:  cpu time      0.0000: real time      0.0000
 Broyden mixing: mesh for mixing (old mesh)
   NGX = 47   NGY = 47   NGZ = 41
  (NGX  =192   NGY  =192   NGZ  =168)
  gives a total of  90569 points

 initial charge density was supplied:
 charge density of overlapping atoms calculated
 number of electron    1329.0000000 magnetization      58.2000000
 keeping initial charge density in first step


--------------------------------------------------------------------------------------------------------


 Maximum index for non-local projection operator          790
 Maximum index for augmentation-charges          794 (set IRDMAX)


--------------------------------------------------------------------------------------------------------


 First call to EWALD:  gamma=   0.144
 Maximum number of real-space cells   3x   3x   3
 Maximum number of reciprocal cells   3x   3x   3

    FEWALD:  cpu time      0.0084: real time      0.0089


--------------------------------------- Ionic step        1  -------------------------------------------




--------------------------------------- Iteration      1(   1)  ---------------------------------------


    POTLOK:  cpu time      0.1329: real time      0.1475
    SETDIJ:  cpu time      0.0143: real time      0.0146
     EDDAV:  cpu time    157.5194: real time    159.3791
       DOS:  cpu time      0.0081: real time      0.0083
    --------------------------------------------
      LOOP:  cpu time    157.6751: real time    159.5501

 eigenvalue-minimisations  :100552
 total energy-change (2. order) : 0.1817599E+05  (-0.7417376E+05)
 number of electron    1329.0000000 magnetization      58.2000000
 augmentation part     1329.0000000 magnetization      58.2000000

 Free energy of the ion-electron system (eV)
  ---------------------------------------------------
  alpha Z        PSCENC =      7552.97409829
  Ewald energy   TEWEN  =   -140798.22360973
  -Hartree energ DENC   =    -70314.67684716
  -exchange      EXHF   =         0.00000000
  -V(xc)+E(xc)   XCENC  =      6774.28130442
  PAW double counting   =    179092.98407549  -182810.86400762
  entropy T*S    EENTRO =        -0.00718389
  eigenvalues    EBANDS =       527.83313390
  atomic energy  EATOM  =    218151.69380995
  Solvation  Ediel_sol  =         0.00000000
  ---------------------------------------------------
  free energy    TOTEN  =     18175.99477365 eV

  energy without entropy =    18176.00195754  energy(sigma->0) =    18175.99716828


--------------------------------------------------------------------------------------------------------




--------------------------------------- Iteration      1(   2)  ---------------------------------------


     EDDAV:  cpu time    137.7143: real time    138.5689
       DOS:  cpu time      0.0081: real time      0.0081
    --------------------------------------------
      LOOP:  cpu time    137.7224: real time    138.5770

 eigenvalue-minimisations  : 90464
 total energy-change (2. order) :-0.1706978E+05  (-0.1657205E+05)
 number of electron    1329.0000000 magnetization      58.2000000
 augmentation part     1329.0000000 magnetization      58.2000000

 Free energy of the ion-electron system (eV)
  ---------------------------------------------------
  alpha Z        PSCENC =      7552.97409829
  Ewald energy   TEWEN  =   -140798.22360973
  -Hartree energ DENC   =    -70314.67684716
  -exchange      EXHF   =         0.00000000
  -V(xc)+E(xc)   XCENC  =      6774.28130442
  PAW double counting   =    179092.98407549  -182810.86400762
  entropy T*S    EENTRO =         0.00475888
  eigenvalues    EBANDS =    -16541.96167471
  atomic energy  EATOM  =    218151.69380995
  Solvation  Ediel_sol  =         0.00000000
  ---------------------------------------------------
  free energy    TOTEN  =      1106.21190781 eV

  energy without entropy =     1106.20714893  energy(sigma->0) =     1106.21032151


--------------------------------------------------------------------------------------------------------




--------------------------------------- Iteration      1(   3)  ---------------------------------------


     EDDAV:  cpu time    163.1080: real time    164.1124
       DOS:  cpu time      0.0075: real time      0.0075
    --------------------------------------------
      LOOP:  cpu time    163.1154: real time    164.1199

 eigenvalue-minimisations  :111872
 total energy-change (2. order) :-0.1609366E+04  (-0.1435087E+04)
 number of electron    1329.0000000 magnetization      58.2000000
 augmentation part     1329.0000000 magnetization      58.2000000

 Free energy of the ion-electron system (eV)
  ---------------------------------------------------
  alpha Z        PSCENC =      7552.97409829
  Ewald energy   TEWEN  =   -140798.22360973
  -Hartree energ DENC   =    -70314.67684716
  -exchange      EXHF   =         0.00000000
  -V(xc)+E(xc)   XCENC  =      6774.28130442
  PAW double counting   =    179092.98407549  -182810.86400762
  entropy T*S    EENTRO =         0.00167771
  eigenvalues    EBANDS =    -18151.32414470
  atomic energy  EATOM  =    218151.69380995
  Solvation  Ediel_sol  =         0.00000000
  ---------------------------------------------------
  free energy    TOTEN  =      -503.15364334 eV

  energy without entropy =     -503.15532106  energy(sigma->0) =     -503.15420258


--------------------------------------------------------------------------------------------------------




--------------------------------------- Iteration      1(   4)  ---------------------------------------


     EDDAV:  cpu time    197.9769: real time    199.2600
       DOS:  cpu time      0.0069: real time      0.0069
    --------------------------------------------
      LOOP:  cpu time    197.9837: real time    199.2669

 eigenvalue-minimisations  :141584
 total energy-change (2. order) :-0.2342238E+03  (-0.2281509E+03)
 number of electron    1329.0000000 magnetization      58.2000000
 augmentation part     1329.0000000 magnetization      58.2000000

 Free energy of the ion-electron system (eV)
  ---------------------------------------------------
  alpha Z        PSCENC =      7552.97409829
  Ewald energy   TEWEN  =   -140798.22360973
  -Hartree energ DENC   =    -70314.67684716
  -exchange      EXHF   =         0.00000000
  -V(xc)+E(xc)   XCENC  =      6774.28130442
  PAW double counting   =    179092.98407549  -182810.86400762
  entropy T*S    EENTRO =         0.01630576
  eigenvalues    EBANDS =    -18385.56260349
  atomic energy  EATOM  =    218151.69380995
  Solvation  Ediel_sol  =         0.00000000
  ---------------------------------------------------
  free energy    TOTEN  =      -737.37747410 eV

  energy without entropy =     -737.39377985  energy(sigma->0) =     -737.38290935


--------------------------------------------------------------------------------------------------------




--------------------------------------- Iteration      1(   5)  ---------------------------------------


     EDDAV:  cpu time    212.3201: real time    213.6713
       DOS:  cpu time      0.0073: real time      0.0073
    CHARGE:  cpu time      3.7027: real time      3.7303
    MIXING:  cpu time      0.0137: real time      0.0141
    --------------------------------------------
      LOOP:  cpu time    216.0435: real time    217.4227

 eigenvalue-minimisations  :154264
 total energy-change (2. order) :-0.2103296E+02  (-0.2097979E+02)
 number of electron    1329.0000313 magnetization      44.7553798
 augmentation part      336.0852338 magnetization      38.3444336

 Broyden mixing:
  rms(total) = 0.13443E+02    rms(broyden)= 0.13442E+02
  rms(prec ) = 0.14864E+02
  weight for this iteration     100.00

 Free energy of the ion-electron system (eV)
  ---------------------------------------------------
  alpha Z        PSCENC =      7552.97409829
  Ewald energy   TEWEN  =   -140798.22360973
  -Hartree energ DENC   =    -70314.67684716
  -exchange      EXHF   =         0.00000000
  -V(xc)+E(xc)   XCENC  =      6774.28130442
  PAW double counting   =    179092.98407549  -182810.86400762
  entropy T*S    EENTRO =         0.01833830
  eigenvalues    EBANDS =    -18406.59759912
  atomic energy  EATOM  =    218151.69380995
  Solvation  Ediel_sol  =         0.00000000
  ---------------------------------------------------
  free energy    TOTEN  =      -758.41043718 eV

  energy without entropy =     -758.42877548  energy(sigma->0) =     -758.41654995


--------------------------------------------------------------------------------------------------------




--------------------------------------- Iteration      1(   6)  ---------------------------------------


    POTLOK:  cpu time      0.2609: real time      0.2621
    SETDIJ:  cpu time      0.0094: real time      0.0095
     EDDAV:  cpu time    158.0027: real time    159.0010
       DOS:  cpu time      0.0066: real time      0.0066
    CHARGE:  cpu time      3.7019: real time      3.7301
    MIXING:  cpu time      0.0075: real time      0.0079
    --------------------------------------------
      LOOP:  cpu time    161.9891: real time    163.0172

 eigenvalue-minimisations  :107232
 total energy-change (2. order) :-0.1275432E+03  (-0.1920523E+03)
 number of electron    1329.0000405 magnetization      41.9697584
 augmentation part      398.3466647 magnetization      23.5795718

 Broyden mixing:
  rms(total) = 0.21960E+02    rms(broyden)= 0.21960E+02
  rms(prec ) = 0.22857E+02
  weight for this iteration     100.00

 eigenvalues of (default mixing * dielectric matrix)
  average eigenvalue GAMMA=   0.3111
  0.3111

 Free energy of the ion-electron system (eV)
  ---------------------------------------------------
  alpha Z        PSCENC =      7552.97409829
  Ewald energy   TEWEN  =   -140798.22360973
  -Hartree energ DENC   =    -65513.15156375
  -exchange      EXHF   =         0.00000000
  -V(xc)+E(xc)   XCENC  =      6612.92852559
  PAW double counting   =    190274.23781778  -193696.74685809
  entropy T*S    EENTRO =        -0.08749516
  eigenvalues    EBANDS =    -23469.57832225
  atomic energy  EATOM  =    218151.69380995
  Solvation  Ediel_sol  =         0.00000000
  ---------------------------------------------------
  free energy    TOTEN  =      -885.95359738 eV

  energy without entropy =     -885.86610222  energy(sigma->0) =     -885.92443233


--------------------------------------------------------------------------------------------------------




--------------------------------------- Iteration      1(   7)  ---------------------------------------


    POTLOK:  cpu time      0.1094: real time      0.1103
    SETDIJ:  cpu time      0.0092: real time      0.0092
     EDDAV:  cpu time    164.2493: real time    165.3070
       DOS:  cpu time      0.0069: real time      0.0069
    CHARGE:  cpu time      3.7208: real time      3.7486
    MIXING:  cpu time      0.0075: real time      0.0078
    --------------------------------------------
      LOOP:  cpu time    168.1031: real time    169.1898

 eigenvalue-minimisations  :112536
 total energy-change (2. order) : 0.1443064E+03  (-0.4463354E+02)
 number of electron    1329.0000391 magnetization      34.4823592
 augmentation part      388.5494736 magnetization      21.6840201

 Broyden mixing:
  rms(total) = 0.80711E+01    rms(broyden)= 0.80709E+01
  rms(prec ) = 0.89662E+01
  weight for this iteration     100.00

 eigenvalues of (default mixing * dielectric matrix)
  average eigenvalue GAMMA=   0.6304
  0.6304  0.6304

 Free energy of the ion-electron system (eV)
  ---------------------------------------------------
  alpha Z        PSCENC =      7552.97409829
  Ewald energy   TEWEN  =   -140798.22360973
  -Hartree energ DENC   =    -66825.11630538
  -exchange      EXHF   =         0.00000000
  -V(xc)+E(xc)   XCENC  =      6649.87586222
  PAW double counting   =    197127.43029543  -200807.46377284
  entropy T*S    EENTRO =         0.03709580
  eigenvalues    EBANDS =    -21792.85469314
  atomic energy  EATOM  =    218151.69380995
  Solvation  Ediel_sol  =         0.00000000
  ---------------------------------------------------
  free energy    TOTEN  =      -741.64721940 eV

  energy without entropy =     -741.68431520  energy(sigma->0) =     -741.65958467


--------------------------------------------------------------------------------------------------------




--------------------------------------- Iteration      1(   8)  ---------------------------------------


    POTLOK:  cpu time      0.1095: real time      0.1106
    SETDIJ:  cpu time      0.0091: real time      0.0092
     EDDAV:  cpu time    162.5091: real time    163.4644
       DOS:  cpu time      0.0080: real time      0.0081
    CHARGE:  cpu time      3.7253: real time      3.7519
    MIXING:  cpu time      0.0077: real time      0.0077
    --------------------------------------------
      LOOP:  cpu time    166.3687: real time    167.3518

 eigenvalue-minimisations  :110592
 total energy-change (2. order) : 0.6280092E+02  (-0.3526753E+02)
 number of electron    1329.0000363 magnetization      25.1095042
 augmentation part      366.6340285 magnetization      15.3953159

 Broyden mixing:
  rms(total) = 0.29417E+01    rms(broyden)= 0.29406E+01
  rms(prec ) = 0.32931E+01
  weight for this iteration     100.00

 eigenvalues of (default mixing * dielectric matrix)
  average eigenvalue GAMMA=   0.8335
  1.4398  0.5304  0.5304

 Free energy of the ion-electron system (eV)
  ---------------------------------------------------
  alpha Z        PSCENC =      7552.97409829
  Ewald energy   TEWEN  =   -140798.22360973
  -Hartree energ DENC   =    -68240.36114680
  -exchange      EXHF   =         0.00000000
  -V(xc)+E(xc)   XCENC  =      6683.72454161
  PAW double counting   =    205236.31059014  -209155.70274339
  entropy T*S    EENTRO =         0.09028734
  eigenvalues    EBANDS =    -20109.35212685
  atomic energy  EATOM  =    218151.69380995
  Solvation  Ediel_sol  =         0.00000000
  ---------------------------------------------------
  free energy    TOTEN  =      -678.84629944 eV

  energy without entropy =     -678.93658678  energy(sigma->0) =     -678.87639522


--------------------------------------------------------------------------------------------------------




--------------------------------------- Iteration      1(   9)  ---------------------------------------


    POTLOK:  cpu time      0.1096: real time      0.1104
    SETDIJ:  cpu time      0.0090: real time      0.0091
     EDDAV:  cpu time    179.9282: real time    181.1226
       DOS:  cpu time      0.0077: real time      0.0078
    CHARGE:  cpu time      3.7403: real time      3.7737
    MIXING:  cpu time      0.0087: real time      0.0088
    --------------------------------------------
      LOOP:  cpu time    183.8036: real time    185.0324

 eigenvalue-minimisations  :126192
 total energy-change (2. order) :-0.2602541E+01  (-0.5585613E+01)
 number of electron    1329.0000366 magnetization      22.7977728
 augmentation part      366.6314508 magnetization      14.8258005

 Broyden mixing:
  rms(total) = 0.17569E+01    rms(broyden)= 0.17564E+01
  rms(prec ) = 0.25881E+01
  weight for this iteration     100.00

 eigenvalues of (default mixing * dielectric matrix)
  average eigenvalue GAMMA=   0.7390
  1.4309  0.5442  0.5442  0.4368

 Free energy of the ion-electron system (eV)
  ---------------------------------------------------
  alpha Z        PSCENC =      7552.97409829
  Ewald energy   TEWEN  =   -140798.22360973
  -Hartree energ DENC   =    -67770.36947995
  -exchange      EXHF   =         0.00000000
  -V(xc)+E(xc)   XCENC  =      6665.12329726
  PAW double counting   =    210101.42521639  -214013.81111178
  entropy T*S    EENTRO =         0.06571233
  eigenvalues    EBANDS =    -20570.32677296
  atomic energy  EATOM  =    218151.69380995
  Solvation  Ediel_sol  =         0.00000000
  ---------------------------------------------------
  free energy    TOTEN  =      -681.44884020 eV

  energy without entropy =     -681.51455253  energy(sigma->0) =     -681.47074431


--------------------------------------------------------------------------------------------------------




--------------------------------------- Iteration      1(  10)  ---------------------------------------


    POTLOK:  cpu time      0.1097: real time      0.1104
    SETDIJ:  cpu time      0.0091: real time      0.0091
     EDDAV:  cpu time    176.1855: real time    177.2943
       DOS:  cpu time      0.0076: real time      0.0076
    CHARGE:  cpu time      3.7342: real time      3.7608
    MIXING:  cpu time      0.0082: real time      0.0083
    --------------------------------------------
      LOOP:  cpu time    180.0543: real time    181.1905

 eigenvalue-minimisations  :122712
 total energy-change (2. order) : 0.1743921E+01  (-0.9675291E+00)
 number of electron    1329.0000372 magnetization      20.6241309
 augmentation part      367.2600273 magnetization      13.3167040

 Broyden mixing:
  rms(total) = 0.11572E+01    rms(broyden)= 0.11570E+01
  rms(prec ) = 0.12598E+01
  weight for this iteration     100.00

[...]
   0.190E+03 0.276E+02 -.351E+01   -.191E+03 -.277E+02 0.349E+01   0.847E+00 0.137E+00 0.193E-01   -.110E-02 -.791E-03 -.133E-02
   -.511E+02 0.510E+02 -.724E+02   0.518E+02 -.518E+02 0.714E+02   -.795E+00 0.795E+00 0.976E+00   -.145E-02 0.245E-02 -.241E-03
   0.276E+02 -.190E+03 -.351E+01   -.277E+02 0.191E+03 0.348E+01   0.137E+00 -.847E+00 0.194E-01   -.209E-03 0.175E-02 -.136E-02
   0.276E+02 0.190E+03 -.351E+01   -.277E+02 -.191E+03 0.349E+01   0.137E+00 0.847E+00 0.194E-01   -.237E-03 -.210E-02 -.132E-02
   -.510E+02 -.510E+02 -.724E+02   0.518E+02 0.518E+02 0.714E+02   -.795E+00 -.795E+00 0.976E+00   -.152E-02 -.217E-02 -.228E-03
   0.930E-03 -.917E-02 -.315E+03   -.776E-03 0.880E-02 0.311E+03   -.218E-04 -.105E-03 0.389E+01   -.122E-03 0.436E-03 0.671E-03
   0.154E-02 0.157E-02 -.220E+02   -.152E-02 -.170E-02 0.216E+02   -.445E-05 -.649E-04 0.440E+00   -.208E-04 0.144E-03 0.157E-03
   0.474E-03 -.794E+02 0.247E+03   -.444E-03 0.803E+02 -.248E+03   -.396E-05 -.864E+00 0.111E+01   -.140E-04 0.222E-02 -.676E-03
   -.881E-03 0.563E-02 0.240E+03   0.929E-03 -.545E-02 -.242E+03   0.505E-05 -.113E-04 0.173E+01   -.465E-04 -.195E-03 -.953E-03
   0.151E-02 0.794E+02 0.247E+03   -.142E-02 -.803E+02 -.248E+03   -.735E-05 0.864E+00 0.111E+01   -.766E-04 -.217E-02 -.507E-03
   -.794E+02 -.139E-02 0.247E+03   0.803E+02 0.123E-02 -.248E+03   -.864E+00 -.335E-04 0.111E+01   0.146E-02 0.203E-03 -.552E-03
   -.565E+02 -.565E+02 0.298E+03   0.564E+02 0.564E+02 -.300E+03   0.981E-01 0.981E-01 0.164E+01   0.437E-03 0.119E-02 -.106E-02
   0.206E+02 0.109E-01 0.233E+03   -.205E+02 -.106E-01 -.234E+03   -.495E-01 -.165E-03 0.181E+01   -.431E-03 -.238E-03 -.982E-03
   -.565E+02 0.565E+02 0.298E+03   0.564E+02 -.564E+02 -.300E+03   0.981E-01 -.980E-01 0.164E+01   0.445E-03 -.115E-02 -.918E-03
   -.123E-02 -.606E-02 0.240E+03   0.117E-02 0.591E-02 -.242E+03   0.235E-05 0.126E-04 0.173E+01   0.465E-04 0.151E-03 -.945E-03
   0.526E-02 0.206E+02 0.233E+03   -.531E-02 -.205E+02 -.234E+03   -.166E-03 -.495E-01 0.181E+01   0.240E-04 0.330E-03 -.108E-02
   0.568E-02 0.109E-01 0.261E+03   -.572E-02 -.107E-01 -.263E+03   -.211E-04 -.244E-04 0.164E+01   0.669E-04 -.195E-03 -.109E-02
   0.352E-02 -.206E+02 0.233E+03   -.359E-02 0.205E+02 -.234E+03   0.737E-04 0.494E-01 0.181E+01   0.943E-04 -.285E-03 -.917E-03
   0.794E+02 -.739E-03 0.247E+03   -.803E+02 0.625E-03 -.248E+03   0.864E+00 -.259E-04 0.111E+01   -.148E-02 0.145E-03 -.624E-03
   0.565E+02 -.565E+02 0.298E+03   -.564E+02 0.564E+02 -.300E+03   -.980E-01 0.981E-01 0.164E+01   -.450E-03 0.120E-02 -.115E-02
   -.206E+02 0.151E-01 0.233E+03   0.206E+02 -.149E-01 -.234E+03   0.495E-01 -.205E-03 0.181E+01   0.409E-03 -.163E-03 -.104E-02
   0.565E+02 0.565E+02 0.298E+03   -.564E+02 -.564E+02 -.300E+03   -.980E-01 -.980E-01 0.164E+01   -.462E-03 -.118E-02 -.958E-03
   0.835E-03 -.720E-02 -.171E+03   -.820E-03 0.701E-02 0.173E+03   0.163E-04 0.131E-04 -.200E+01   -.340E-04 0.172E-03 0.108E-04
   0.162E-02 -.295E+02 -.305E+03   -.162E-02 0.298E+02 0.307E+03   -.109E-06 -.272E+00 -.156E+01   -.462E-05 0.131E-02 -.215E-04
   0.222E-02 0.536E-02 -.227E+03   -.218E-02 -.516E-02 0.229E+03   -.735E-05 -.146E-04 -.193E+01   -.429E-04 -.180E-03 -.434E-03
   0.304E-02 0.295E+02 -.305E+03   -.297E-02 -.298E+02 0.307E+03   -.602E-05 0.272E+00 -.156E+01   -.735E-04 -.129E-02 -.159E-03
   -.295E+02 -.357E-02 -.305E+03   0.298E+02 0.339E-02 0.307E+03   -.272E+00 -.108E-04 -.156E+01   0.550E-03 0.190E-03 -.130E-03
   -.571E+02 -.571E+02 -.293E+03   0.570E+02 0.570E+02 0.295E+03   0.163E+00 0.163E+00 -.151E+01   0.150E-03 0.908E-03 -.110E-03
   0.243E+02 0.685E-02 -.229E+03   -.241E+02 -.664E-02 0.231E+03   -.182E+00 -.121E-04 -.195E+01   -.496E-03 -.225E-03 -.386E-03
   -.571E+02 0.571E+02 -.294E+03   0.570E+02 -.570E+02 0.295E+03   0.163E+00 -.163E+00 -.151E+01   0.158E-03 -.879E-03 -.241E-03
   -.121E-02 -.314E-02 -.227E+03   0.118E-02 0.299E-02 0.229E+03   -.579E-05 -.846E-06 -.193E+01   0.398E-04 0.140E-03 -.460E-03
   0.943E-03 0.243E+02 -.229E+03   -.962E-03 -.241E+02 0.231E+03   -.797E-05 -.182E+00 -.195E+01   0.166E-04 0.280E-03 -.303E-03
   -.613E-02 -.198E-02 -.273E+03   0.604E-02 0.214E-02 0.275E+03   0.215E-04 0.238E-04 -.177E+01   0.655E-04 -.187E-03 -.262E-03
   -.689E-02 -.243E+02 -.229E+03   0.677E-02 0.241E+02 0.231E+03   0.293E-04 0.182E+00 -.195E+01   0.905E-04 -.226E-03 -.457E-03
   0.295E+02 -.222E-02 -.305E+03   -.298E+02 0.210E-02 0.307E+03   0.272E+00 -.175E-04 -.156E+01   -.561E-03 0.124E-03 -.709E-04
   0.571E+02 -.571E+02 -.293E+03   -.570E+02 0.570E+02 0.295E+03   -.163E+00 0.163E+00 -.151E+01   -.161E-03 0.922E-03 -.316E-04
   -.243E+02 0.498E-04 -.229E+03   0.241E+02 0.703E-04 0.231E+03   0.182E+00 0.203E-04 -.195E+01   0.472E-03 -.149E-03 -.338E-03
   0.571E+02 0.571E+02 -.294E+03   -.570E+02 -.570E+02 0.295E+03   -.163E+00 -.163E+00 -.151E+01   -.174E-03 -.903E-03 -.204E-03
   -.252E+02 -.252E+02 0.281E+03   0.252E+02 0.252E+02 -.282E+03   -.101E-01 -.100E-01 0.139E+01   0.302E-03 0.116E-02 -.987E-03
   -.707E+01 -.278E+02 0.291E+03   0.700E+01 0.277E+02 -.293E+03   0.631E-01 0.745E-01 0.176E+01   -.375E-04 0.459E-03 -.960E-03
   -.706E+01 0.278E+02 0.291E+03   0.700E+01 -.277E+02 -.293E+03   0.631E-01 -.744E-01 0.176E+01   -.604E-04 -.965E-03 -.122E-02
   -.252E+02 0.252E+02 0.281E+03   0.252E+02 -.252E+02 -.282E+03   -.101E-01 0.100E-01 0.139E+01   0.281E-03 -.661E-03 -.127E-02
   -.278E+02 -.707E+01 0.291E+03   0.277E+02 0.701E+01 -.293E+03   0.745E-01 0.631E-01 0.176E+01   0.269E-03 0.808E-03 -.955E-03
   -.216E+02 -.216E+02 0.293E+03   0.215E+02 0.215E+02 -.295E+03   0.101E+00 0.101E+00 0.170E+01   -.273E-03 -.815E-04 -.949E-03
   -.216E+02 0.216E+02 0.293E+03   0.215E+02 -.215E+02 -.295E+03   0.101E+00 -.101E+00 0.170E+01   -.247E-03 -.426E-03 -.121E-02
   -.278E+02 0.707E+01 0.291E+03   0.277E+02 -.700E+01 -.293E+03   0.745E-01 -.631E-01 0.176E+01   0.294E-03 -.312E-03 -.122E-02
   0.277E+02 -.707E+01 0.291E+03   -.277E+02 0.700E+01 -.293E+03   -.744E-01 0.631E-01 0.176E+01   -.143E-03 0.792E-03 -.840E-03
   0.216E+02 -.216E+02 0.293E+03   -.215E+02 0.215E+02 -.295E+03   -.101E+00 0.101E+00 0.170E+01   0.411E-03 -.538E-04 -.844E-03
   0.216E+02 0.216E+02 0.293E+03   -.215E+02 -.215E+02 -.295E+03   -.101E+00 -.101E+00 0.170E+01   0.435E-03 -.402E-03 -.112E-02
   0.277E+02 0.707E+01 0.291E+03   -.277E+02 -.700E+01 -.293E+03   -.744E-01 -.631E-01 0.176E+01   -.120E-03 -.345E-03 -.112E-02
   0.252E+02 -.252E+02 0.281E+03   -.252E+02 0.252E+02 -.282E+03   0.100E-01 -.101E-01 0.139E+01   -.427E-03 0.114E-02 -.868E-03
   0.707E+01 -.278E+02 0.291E+03   -.700E+01 0.277E+02 -.293E+03   -.631E-01 0.745E-01 0.176E+01   -.982E-04 0.485E-03 -.847E-03
   0.707E+01 0.278E+02 0.291E+03   -.700E+01 -.277E+02 -.293E+03   -.631E-01 -.744E-01 0.176E+01   -.124E-03 -.944E-03 -.113E-02
   0.252E+02 0.252E+02 0.281E+03   -.252E+02 -.252E+02 -.282E+03   0.100E-01 0.100E-01 0.139E+01   -.452E-03 -.693E-03 -.116E-02
   -.153E+03 -.153E+03 -.209E+03   0.154E+03 0.154E+03 0.210E+03   -.238E+00 -.238E+00 -.124E+01   0.954E-03 0.183E-02 0.147E-02
   -.953E+01 -.283E+02 -.270E+03   0.958E+01 0.282E+02 0.272E+03   -.420E-01 0.101E+00 -.178E+01   0.441E-04 0.736E-03 0.219E-02
   -.953E+01 0.283E+02 -.270E+03   0.958E+01 -.282E+02 0.272E+03   -.420E-01 -.101E+00 -.178E+01   0.330E-04 -.126E-02 0.243E-02
   -.153E+03 0.153E+03 -.209E+03   0.154E+03 -.154E+03 0.210E+03   -.237E+00 0.238E+00 -.124E+01   0.931E-03 -.132E-02 0.174E-02
   -.283E+02 -.954E+01 -.270E+03   0.282E+02 0.958E+01 0.272E+03   0.101E+00 -.420E-01 -.178E+01   0.567E-03 0.892E-03 0.220E-02
   -.563E+01 -.563E+01 -.292E+03   0.567E+01 0.567E+01 0.293E+03   -.345E-01 -.345E-01 -.166E+01   -.204E-03 -.296E-05 0.231E-02
   -.564E+01 0.564E+01 -.292E+03   0.567E+01 -.568E+01 0.293E+03   -.345E-01 0.345E-01 -.166E+01   -.173E-03 -.502E-03 0.256E-02
   -.283E+02 0.953E+01 -.270E+03   0.282E+02 -.957E+01 0.272E+03   0.101E+00 0.420E-01 -.178E+01   0.590E-03 -.389E-03 0.245E-02
   0.283E+02 -.954E+01 -.270E+03   -.282E+02 0.958E+01 0.272E+03   -.101E+00 -.420E-01 -.178E+01   -.431E-03 0.875E-03 0.210E-02
   0.564E+01 -.564E+01 -.292E+03   -.567E+01 0.567E+01 0.293E+03   0.345E-01 -.345E-01 -.166E+01   0.344E-03 0.180E-04 0.221E-02
   0.564E+01 0.565E+01 -.292E+03   -.567E+01 -.568E+01 0.293E+03   0.345E-01 0.345E-01 -.166E+01   0.359E-03 -.478E-03 0.247E-02
   0.283E+02 0.953E+01 -.270E+03   -.282E+02 -.957E+01 0.272E+03   -.101E+00 0.420E-01 -.178E+01   -.412E-03 -.417E-03 0.235E-02
   0.153E+03 -.153E+03 -.209E+03   -.154E+03 0.154E+03 0.210E+03   0.238E+00 -.238E+00 -.124E+01   -.109E-02 0.182E-02 0.136E-02
   0.953E+01 -.283E+02 -.270E+03   -.957E+01 0.282E+02 0.272E+03   0.420E-01 0.101E+00 -.178E+01   -.185E-03 0.760E-03 0.209E-02
   0.953E+01 0.283E+02 -.270E+03   -.958E+01 -.282E+02 0.272E+03   0.420E-01 -.101E+00 -.178E+01   -.219E-03 -.124E-02 0.234E-02
   0.153E+03 0.153E+03 -.209E+03   -.154E+03 -.154E+03 0.210E+03   0.238E+00 0.238E+00 -.124E+01   -.111E-02 -.135E-02 0.164E-02
 -----------------------------------------------------------------------------------------------
   -.265E-04 0.497E-03 -.242E+01   -.767E-12 0.256E-12 -.739E-12   -.669E-04 -.546E-03 0.237E+01   0.472E-04 0.835E-05 -.162E-02
 
 
 POSITION                                       TOTAL-FORCE (eV/Angst)
 -----------------------------------------------------------------------------------
      0.00001     12.91230     11.08756        -0.000004     -0.000026      0.007296
      0.00000      3.33669     11.13396         0.000000     -0.005075      0.005750
      0.00000      6.45616     11.15382         0.000001      0.000015     -0.004109
      0.00000      9.57562     11.13401         0.000016      0.005106      0.005976
      3.33669     12.91230     11.13396        -0.005072     -0.000033      0.005762
      3.32474      3.32474     11.11401        -0.010219     -0.010220      0.001048
      3.26124      6.45616     11.18301        -0.002183      0.000025     -0.005273
      3.32476      9.58757     11.11403        -0.010244      0.010226      0.000984
      6.45615     12.91230     11.15382        -0.000001     -0.000013     -0.004104
      6.45615      3.26124     11.18302        -0.000009     -0.002180     -0.005304
      6.45615      6.45616      0.05742        -0.000038      0.000101     -0.000130
      6.45615      9.65107     11.18301        -0.000016      0.002208     -0.005280
      9.57561     12.91230     11.13401         0.005118     -0.000031      0.005990
      9.58757      3.32476     11.11403         0.010222     -0.010244      0.001001
      9.65107      6.45615     11.18300         0.002168      0.000017     -0.005271
      9.58755      9.58755     11.11405         0.010236      0.010243      0.000961
      1.78688      1.78684      5.67599         0.001593      0.001649     -0.004749
      1.55888      4.70721      5.55086        -0.002287     -0.002654     -0.003441
      1.55889      8.20510      5.55087        -0.002296      0.002725     -0.003464
      1.78687     11.12543      5.67602         0.001563     -0.001563     -0.004816
      4.70721      1.55888      5.55085        -0.002701     -0.002348     -0.003469
      4.85013      4.85013      5.56464        -0.001991     -0.001936      0.005100
      4.85013      8.06218      5.56463        -0.001970      0.002009      0.005050
      4.70721     11.35342      5.55085        -0.002702      0.002266     -0.003489
      8.20509      1.55888      5.55086         0.002672     -0.002362     -0.003479
      8.06217      4.85013      5.56464         0.001968     -0.001911      0.005037
      8.06217      8.06217      5.56457         0.001962      0.002049      0.005145
      8.20509     11.35342      5.55086         0.002678      0.002273     -0.003523
     11.12543      1.78684      5.67600        -0.001585      0.001658     -0.004752
     11.35342      4.70721      5.55085         0.002310     -0.002632     -0.003491
     11.35342      8.20509      5.55086         0.002329      0.002723     -0.003514
     11.12544     11.12543      5.67603        -0.001548     -0.001560     -0.004822
      0.00000     12.91230      2.39492         0.000012     -0.000038      0.006221
      0.00000     12.91230      4.77374        -0.000003     -0.000047      0.009318
     12.91230      3.09208      3.79441         0.000012     -0.001881     -0.001157
      0.00000      6.45616      3.90782         0.000006     -0.000024      0.009414
     12.91230      9.82023      3.79441         0.000006      0.001857     -0.001174
      3.09207     12.91230      3.79440        -0.001858      0.000004     -0.001174
      3.23225      3.23225      3.84226        -0.000447     -0.000447     -0.006630
      3.21603      6.45616      3.89065         0.004401     -0.000189      0.001437
      3.23224      9.68006      3.84227        -0.000465      0.000484     -0.006670
      6.45615      0.00000      3.90782        -0.000012      0.000013      0.009419
      6.45616      3.21603      3.89064        -0.000188      0.004408      0.001447
      6.45614      6.45614      3.85745         0.000010      0.000008     -0.002638
      6.45615      9.69628      3.89064         0.000094     -0.004435      0.001448
      9.82023     12.91230      3.79441         0.001860      0.000005     -0.001193
      9.68006      3.23224      3.84227         0.000503     -0.000446     -0.006640
      9.69628      6.45616      3.89064        -0.004415     -0.000206      0.001465
      9.68006      9.68006      3.84227         0.000483      0.000493     -0.006665
     12.91230     12.91230      7.57605        -0.000002     -0.000008     -0.003290
      0.00000      3.19364      7.32913        -0.000002     -0.000413     -0.001911
     12.91230      6.45615      7.27608        -0.000004      0.000005      0.002903
      0.00000      9.71866      7.32913        -0.000008      0.000361     -0.001909
      3.19365     12.91230      7.32913        -0.000363     -0.000003     -0.001869
      3.26736      3.26736      7.35408         0.001499      0.001501      0.003198
      3.20812      6.45616      7.26475        -0.001199     -0.000023      0.001157
      3.26736      9.64495      7.35408         0.001512     -0.001505      0.003208
      6.45615      0.00000      7.27608         0.000010     -0.000005      0.002892
      6.45615      3.20812      7.26475        -0.000009     -0.001195      0.001138
      6.45616      6.45616      7.25374         0.000002     -0.000002     -0.000831
      6.45616      9.70418      7.26475         0.000001      0.001206      0.001177
      9.71866     12.91230      7.32913         0.000357     -0.000018     -0.001902
      9.64495      3.26736      7.35408        -0.001479      0.001488      0.003168
      9.70417      6.45616      7.26475         0.001204     -0.000009      0.001170
      9.64494      9.64494      7.35409        -0.001499     -0.001499      0.003166
      1.65431      1.65431      9.49985        -0.003299     -0.003291      0.000368
      1.62363      4.87082      9.44302        -0.003461      0.001755     -0.002360
      1.62362      8.04149      9.44303        -0.003448     -0.001756     -0.002354
      1.65431     11.25799      9.49985        -0.003291      0.003291      0.000399
      4.87082      1.62363      9.44302         0.001757     -0.003454     -0.002356
      4.87695      4.87696      9.42105         0.000228      0.000226      0.001157
      4.87695      8.03536      9.42105         0.000236     -0.000242      0.001153
      4.87083     11.28868      9.44301         0.001756      0.003451     -0.002331
      8.04149      1.62363      9.44303        -0.001747     -0.003446     -0.002349
      8.03535      4.87695      9.42106        -0.000233      0.000231      0.001154
      8.03535      8.03536      9.42106        -0.000234     -0.000243      0.001177
      8.04149     11.28868      9.44302        -0.001741      0.003446     -0.002319
     11.25799      1.65431      9.49986         0.003287     -0.003292      0.000385
     11.28868      4.87083      9.44301         0.003451      0.001750     -0.002338
     11.28868      8.04149      9.44302         0.003444     -0.001752     -0.002330
     11.25799     11.25799      9.49986         0.003271      0.003284      0.000394
      1.72810      1.72810      1.54916         0.001946      0.001952      0.007017
      1.61039      4.87406      1.73524         0.003066     -0.007603     -0.000642
      1.61039      8.03824      1.73525         0.003055      0.007620     -0.000683
      1.72810     11.18421      1.54916         0.001943     -0.001939      0.006988
      4.87406      1.61039      1.73524        -0.007611      0.003073     -0.000653
      4.84044      4.84045      1.73777        -0.001980     -0.001984     -0.001610
      4.84045      8.07186      1.73778        -0.001960      0.001984     -0.001628
      4.87406     11.30191      1.73524        -0.007594     -0.003056     -0.000643
      8.03824      1.61039      1.73525         0.007627      0.003055     -0.000686
      8.07186      4.84045      1.73778         0.001983     -0.001942     -0.001642
      8.07185      8.07185      1.73779         0.001953      0.001965     -0.001623
      8.03824     11.30191      1.73525         0.007591     -0.003055     -0.000650
     11.18421      1.72810      1.54916        -0.001936      0.001938      0.007000
     11.30192      4.87406      1.73524        -0.003060     -0.007581     -0.000622
     11.30191      8.03824      1.73525        -0.003053      0.007597     -0.000659
     11.18421     11.18421      1.54917        -0.001935     -0.001930      0.006971
 -----------------------------------------------------------------------------------
    total drift:                               -0.000046     -0.000041     -0.045027


--------------------------------------------------------------------------------------------------------



  FREE ENERGIE OF THE ION-ELECTRON SYSTEM (eV)
  ---------------------------------------------------
  free  energy   TOTEN  =      -680.89161765 eV

  energy  without entropy=     -680.92109658  energy(sigma->0) =     -680.90144396
 


--------------------------------------------------------------------------------------------------------


    POTLOK:  cpu time      0.1214: real time      0.1223


--------------------------------------------------------------------------------------------------------




--------------------------------------------------------------------------------------------------------


  
 reached required accuracy - stopping structural energy minimisation
     LOOP+:  cpu time   5064.6219: real time   5098.2393
    4ORBIT:  cpu time      0.0000: real time      0.0000

 total amount of memory used by VASP MPI-rank0   632237. kBytes
=======================================================================

   base                                    :      30000. kBytes
   nonlr-proj                              :      21524. kBytes
   fftplans                                :       6172. kBytes
   grid                                    :      15593. kBytes
   one-center                              :        404. kBytes
   wavefun                                 :     558544. kBytes
 
  
  
 General timing and accounting informations for this job:
 ========================================================
  
                  Total CPU time used (sec):     5136.931
                            User time (sec):     5127.060
                          System time (sec):        9.871
                         Elapsed time (sec):     5173.398
  
                   Maximum memory used (kb):      943928.
                   Average memory used (kb):          N/A
  
                          Minor page faults:      1054253
                          Major page faults:            0
                 Voluntary context switches:         4785
